LAMMPS data file generated from extxyz by ASE

189 atoms
3 atom types

0.0 18.6000000000000014 xlo xhi
0.0 18.6000000000000014 ylo yhi
0.0 18.6000000000000014 zlo zhi

Masses

1 72.630000 # Ge
2 121.760000 # Sb
3 127.600000 # Te

Atoms # atomic

1 1 18.5803025999999996 9.9651732000000006 5.5467990000000000
2 1 6.2765700000000004 2.8036151999999999 5.0880858000000000
3 1 18.5438280000000013 4.9416665999999996 4.8905538000000002
4 1 12.2950835999999999 8.1934860000000000 4.9644702000000001
5 1 13.7965313999999992 18.4410443999999991 10.9361675999999992
6 1 18.5499101999999993 1.0818875999999999 11.9152158000000004
7 1 7.6278600000000001 1.3992036000000001 12.0588636000000005
8 1 7.7340102000000002 15.2748965999999999 18.3908243999999996
9 1 11.7757901999999994 17.0414874000000012 7.5987882000000004
10 1 12.7941216000000004 3.9165462000000000 9.3606174000000006
11 1 13.6867541999999993 0.5842818000000000 13.8251196000000007
12 1 10.0825391999999994 12.5633885999999997 18.0766518000000005
13 1 12.7139927999999998 5.1705953999999998 1.8508115999999999
14 1 18.5147933999999985 4.5145362000000002 1.3419342000000001
15 1 12.8980212000000005 10.2126833999999995 1.2568950000000001
16 1 2.1487650000000000 2.6161086000000000 13.9675770000000004
17 1 14.6587902000000003 1.9482942000000001 0.8677086000000001
18 1 0.0670344000000000 14.7096053999999992 5.5969632000000002
19 1 9.6949710000000007 18.0566196000000012 16.3740449999999989
20 1 8.4391548000000007 5.8831986000000001 11.5226442000000002
21 1 3.6274278000000000 2.3815067999999999 17.9531664000000006
22 1 5.2693800000000000 17.5013538000000004 12.5698799999999995
23 1 5.4842658000000002 5.2253537999999997 13.3980263999999991
24 1 4.6003752000000002 14.8102871999999994 13.0253382000000002
25 1 16.5390084000000002 12.3025421999999995 10.9850670000000008
26 1 9.9166830000000008 16.6690782000000013 12.0132005999999993
27 1 9.4688879999999997 4.6936356000000004 5.3596272000000003
28 2 11.1774281999999996 8.0927855999999991 9.9248484000000001
29 2 3.1409448000000002 15.1411812000000001 16.8975791999999991
30 2 8.8632905999999991 18.0135791999999988 4.9487904000000000
31 2 5.3050362000000000 12.1323893999999992 4.0271417999999999
32 2 8.7380195999999994 7.8939516000000003 7.0559099999999999
33 2 12.1523844000000008 3.1919832000000001 16.1687195999999993
34 2 15.4350983999999993 17.4689711999999986 6.1456260000000000
35 2 4.3993463999999998 12.5570459999999997 6.7943939999999996
36 2 1.0696673999999999 8.5331963999999996 11.1568938000000006
37 2 13.6891535999999991 0.5056038000000000 4.7578985999999999
38 2 15.4426500000000004 7.9251996000000000 12.5135964000000008
39 2 8.2952651999999993 12.1732163999999994 6.4662341999999997
40 2 2.1721824000000001 15.2093688000000000 2.5263822000000000
41 2 0.0282720000000000 13.3614029999999993 13.7248470000000005
42 2 8.0261604000000002 14.9858153999999999 10.8183179999999997
43 2 2.3165184000000001 12.2520246000000004 10.3519044000000005
44 2 12.0134796000000001 1.0405584000000001 7.1710440000000002
45 2 5.0168663999999996 6.9522335999999996 9.3195485999999992
46 2 6.4198829999999996 1.8134999999999999 15.5032674000000004
47 2 7.5221933999999999 11.6907323999999999 15.0106464000000006
48 2 5.3057616000000003 11.1124212000000000 17.8207902000000011
49 2 12.0704142000000001 14.0646503999999997 10.0859058000000008
50 2 1.8891275999999999 8.3473080000000000 18.5863289999999992
51 2 9.1977372000000006 9.2951081999999996 15.5568354000000006
52 2 14.5723932000000005 10.6882482000000003 7.4953349999999999
53 2 10.4394732000000001 12.6106884000000008 13.6394915999999995
54 2 3.7254684000000000 3.6180162000000000 3.2784732000000001
55 2 2.0737326000000000 6.5327849999999996 14.8212983999999999
56 2 14.1578364000000008 11.8928214000000008 13.9995689999999993
57 2 18.5563086000000013 3.0151530000000002 8.5501781999999995
58 2 16.6801823999999996 2.9272866000000000 14.8551131999999999
59 2 11.1263711999999995 3.0668981999999998 11.5205610000000007
60 2 6.4152887999999999 6.7673867999999997 17.1729708000000016
61 2 16.9924578000000004 17.8757160000000006 10.2161988000000008
62 2 13.8414131999999999 13.8839328000000002 1.0862586000000001
63 2 10.5564300000000006 1.4629272000000000 3.4718946000000002
64 2 7.2978959999999997 0.0278070000000000 2.6081664000000000
65 2 17.2850730000000006 7.2193110000000003 7.9784141999999996
66 2 18.2053638000000007 15.2503446000000000 10.0874495999999994
67 2 12.6691853999999999 7.1001408000000001 17.0914098000000010
68 2 8.0385480000000005 17.5104492000000000 13.9944167999999998
69 2 12.4081901999999999 11.2003248000000006 5.4144041999999999
70 2 17.2730573999999990 8.3323535999999994 16.1209175999999985
71 2 16.8420582000000003 17.8158053999999986 3.5643552000000001
72 2 12.0473502000000003 17.8309086000000008 18.1089786000000004
73 2 16.8798905999999995 10.9734978000000005 0.7883796000000000
74 2 0.3678522000000000 18.1451741999999996 15.9820314000000003
75 2 13.1975183999999999 9.0631476000000006 14.2208345999999999
76 2 5.5360668000000004 8.6073918000000003 6.1960319999999998
77 2 4.8272952000000000 18.3090960000000003 18.5194247999999995
78 2 2.7307032000000002 4.4149890000000003 11.2409844000000003
79 2 10.7086710000000007 5.7987918000000001 8.2140576000000003
80 2 4.1484323999999999 16.0098756000000009 9.4337712000000007
81 2 4.9454982000000003 1.5942989999999999 8.6765279999999994
82 3 14.6304996000000003 12.1878732000000003 17.5269101999999997
83 3 13.2145560000000000 5.9724041999999997 6.6000984000000003
84 3 8.5772598000000002 3.6474972000000001 2.9374235999999998
85 3 4.0526423999999999 3.6190205999999998 6.8927880000000004
86 3 1.7924633999999999 2.4186695999999999 1.4106984000000000
87 3 15.5296608000000003 6.2750820000000003 14.8999577999999993
88 3 12.0169949999999996 3.9942384000000000 4.6196634000000003
89 3 15.5788206000000002 8.4670176000000001 18.4339949999999995
90 3 11.2270901999999992 5.9153766000000001 12.1856226000000003
91 3 3.4956095999999999 17.9984946000000008 7.2542603999999997
92 3 2.1064685999999999 10.6251011999999996 12.8900231999999999
93 3 13.7831022000000001 11.4786552000000004 11.1774096000000007
94 3 8.0985701999999993 1.6281696000000001 6.7442298000000003
95 3 3.9507702000000000 4.3417421999999997 15.5137020000000003
96 3 10.6378236000000008 10.6988502000000008 2.7628067999999999
97 3 4.9567883999999998 1.5655806000000001 12.6302742000000006
98 3 14.4139584000000003 1.1460576000000000 16.4952053999999997
99 3 6.2688324000000000 14.7720269999999996 7.6643904000000003
100 3 16.1166024000000014 14.5469297999999991 12.6010722000000008
101 3 9.7308503999999996 12.4812138000000008 10.8711977999999991
102 3 5.7897335999999999 6.1304856000000001 4.1679624000000004
103 3 0.3632394000000000 5.9828387999999997 17.2103381999999989
104 3 0.1187238000000000 11.0715012000000002 8.5021716000000005
105 3 4.0245749999999996 12.9599405999999995 14.9997281999999998
106 3 14.0452878000000005 4.8345120000000001 18.0158112000000017
107 3 14.2043178000000001 16.4790792000000010 9.1683120000000002
108 3 1.5000899999999999 15.4082585999999999 12.0086435999999992
109 3 7.3774481999999999 10.0530209999999993 4.4021363999999998
110 3 2.2398864000000001 1.5845712000000001 10.1402736000000004
111 3 5.8066038000000004 16.0355436000000005 2.0367000000000002
112 3 10.6812360000000002 9.6933900000000008 12.8912321999999993
113 3 15.8444844000000007 15.1665702000000007 17.5996734000000004
114 3 0.5480862000000000 2.3903604000000001 16.4789862000000014
115 3 3.2388552000000002 9.9442854000000001 5.3904101999999998
116 3 11.3626097999999995 10.4946780000000004 17.0223294000000003
117 3 9.4997825999999996 15.7759619999999998 8.1857298000000007
118 3 8.0543022000000004 1.2884220000000000 17.8611335999999987
119 3 13.7170535999999998 7.8744030000000000 2.6227488000000001
120 3 9.7556627999999996 7.2228078000000000 4.3410726000000004
121 3 8.6859023999999998 3.3578952000000002 9.9504420000000007
122 3 0.0676482000000000 9.0863417999999996 2.7170694000000002
123 3 14.0480034000000007 17.9590812000000000 1.6015344000000000
124 3 17.0984592000000006 17.7970380000000006 18.2130456000000009
125 3 6.1693224000000004 10.7574216000000007 8.1532169999999997
126 3 7.3773923999999997 14.5984517999999994 13.6501680000000007
127 3 10.8467946000000008 18.5909604000000002 10.3113936000000006
128 3 7.7387718000000003 8.2397814000000000 10.0450415999999993
129 3 9.8705364000000007 14.6143175999999997 16.2734190000000005
130 3 0.9599088000000000 7.3933325999999999 6.2573004000000001
131 3 1.7502228000000000 13.0568837999999996 4.2823710000000004
132 3 17.9212674000000014 0.1115628000000000 7.7068355999999998
133 3 3.5934270000000001 7.4244317999999998 12.1300272000000007
134 3 1.6808448000000000 2.2843962000000002 5.7279815999999997
135 3 13.7615634000000000 3.1925970000000001 13.3944738000000001
136 3 6.2479632000000001 10.1350841999999997 13.1519484000000002
137 3 3.7732146000000002 8.6556774000000001 16.3229694000000016
138 3 12.6103722000000005 16.3114559999999997 5.1385661999999996
139 3 9.0760374000000006 5.0862258000000002 18.1910045999999994
140 3 5.5172622000000002 4.3053419999999996 10.4063093999999996
141 3 0.5841888000000000 10.5615635999999995 17.4910679999999985
142 3 5.1672288000000002 13.0539450000000006 10.9883033999999995
143 3 16.7485560000000007 0.1218672000000000 13.7537327999999999
144 3 18.1658574000000002 14.1990353999999996 1.3467144000000000
145 3 3.2650812000000000 13.2521465999999997 0.5277564000000000
146 3 16.5928925999999990 14.8615302000000007 3.5301870000000002
147 3 11.1797345999999997 13.7338679999999993 6.4131684000000000
148 3 14.5802238000000006 11.5427508000000003 3.1171367999999999
149 3 1.6695732000000001 5.7972852000000001 9.0659189999999992
150 3 15.9074639999999992 8.8084577999999993 5.7988289999999996
151 3 16.5929484000000009 2.6957724000000001 11.0341710000000006
152 3 13.0822914000000008 15.2591424000000000 16.9353371999999993
153 3 16.9821534000000014 6.7091130000000003 3.2055240000000000
154 3 4.9280885999999997 6.7580495999999997 1.2186348000000000
155 3 7.0479864000000001 7.5316049999999999 14.1713027999999994
156 3 10.8765359999999998 1.0716762000000000 14.3162154000000008
157 3 9.7983311999999998 16.6419035999999991 1.2463116000000001
158 3 5.3987802000000000 17.1636336000000007 15.9239808000000007
159 3 11.8226621999999999 2.3592797999999999 0.6552036000000000
160 3 14.9068769999999997 3.3850326000000002 3.6775920000000002
161 3 7.6166628000000003 12.5631468000000002 0.9143760000000000
162 3 17.6973048000000013 2.5155756000000000 3.3136830000000002
163 3 16.3455498000000006 4.6882229999999998 7.0645590000000000
164 3 10.4822159999999993 10.2495671999999995 7.5974861999999996
165 3 8.0180880000000005 3.9918947999999999 14.0288825999999993
166 3 2.5818474000000000 9.7089023999999995 8.9165981999999993
167 3 10.4436210000000003 5.7839489999999998 15.6560664000000003
168 3 1.9105548000000001 14.5143983999999993 8.0952407999999991
169 3 0.1769046000000000 4.4134452000000000 13.2747828000000005
170 3 4.7054093999999997 0.7710444000000000 3.9122682000000002
171 3 10.7971325999999994 7.0999733999999997 0.9876042000000000
172 3 16.9099481999999988 10.8401916000000007 13.8898104000000000
173 3 5.5275480000000003 3.7363493999999999 0.8103276000000000
174 3 5.4970068000000003 16.6209227999999989 5.6054820000000003
175 3 0.8326662000000000 17.2137047999999986 4.5368190000000004
176 3 4.4572854000000000 9.6595937999999997 1.5416609999999999
177 3 14.2752768000000003 1.5548112000000001 8.8336050000000004
178 3 0.1352406000000000 14.7333390000000009 16.3303535999999987
179 3 14.2088003999999994 8.2036973999999994 9.3937811999999994
180 3 6.7371432000000002 5.3578416000000004 6.7241417999999999
181 3 12.3965466000000006 15.4859507999999995 12.6922308000000008
182 3 14.9212547999999998 5.5374990000000004 10.7758914000000008
183 3 1.9798211999999999 17.5025441999999991 18.5799120000000002
184 3 7.6360440000000001 9.1957284000000001 18.0776748000000005
185 3 7.5014358000000003 14.1500801999999997 4.1688365999999997
186 3 10.8315611999999994 13.4966249999999999 2.0470974000000002
187 3 6.6573305999999999 18.0218004000000001 10.2815778000000009
188 3 16.2787757999999982 12.8012826000000004 8.1902310000000007
189 3 1.8361548000000001 5.8741776000000003 2.9717964000000001
