Minimal Ge Sb Te test

3 atoms
3 atom types

0.0 12.0 xlo xhi
0.0 12.0 ylo yhi
0.0 12.0 zlo zhi

Masses

1 72.630
2 121.760
3 127.600

Atoms # atomic

1 1 2.0 2.0 2.0
2 2 5.0 5.0 5.0
3 3 8.0 8.0 8.0