LAMMPS (22 Jul 2025)
units           metal
atom_style      atomic
boundary        p p p

read_data       data.gst_minimal
Reading data file ...
  orthogonal box = (0 0 0) to (12 12 12)
  1 by 1 by 1 MPI processor grid
  reading atoms ...
  3 atoms
  read_data CPU = 0.001 seconds

pair_style      ai2pot ./ai2pot_libtorch.pt
AI2Pot: TorchScript model loaded successfully
  model file      : ./ai2pot_libtorch.pt
  potential type  : AI2Pot-MTP
  device          : cuda:0
  torch dtype     : float32
pair_coeff      * * Ge Sb Te
AI2Pot: pair_coeff initialized
  cutoff                 : 5.000000
  umax_num_neigh_atoms   : 200
  model_type_map  : 32 51 52 
  lmp_type_map    : 32 51 52 
  lmp2model_map   : 0 1 2 

neighbor        2.0 bin
neigh_modify    every 1 delay 0 check yes

thermo          1
thermo_style    custom step atoms pe etotal press

run             100
WARNING: No fixes with time integration, atoms won't move
For more information see https://docs.lammps.org/err0028 (../verlet.cpp:60)
Generated 0 of 3 mixed pair_coeff terms from geometric mixing rule
Neighbor list info ...
  update: every = 1 steps, delay = 0 steps, check = yes
  max neighbors/atom: 2000, page size: 100000
  master list distance cutoff = 7
  ghost atom cutoff = 7
  binsize = 3.5, bins = 4 4 4
  1 neighbor lists, perpetual/occasional/extra = 1 0 0
  (1) pair ai2pot, perpetual
      attributes: full, newton on
      pair build: full/bin/atomonly
      stencil: full/bin/3d
      bin: standard
Per MPI rank memory allocation (min/avg/max) = 3.059 | 3.059 | 3.059 Mbytes
   Step        Atoms        PotEng         TotEng         Press     
         0           3   0              0              0            
         1           3   0              0              0            
         2           3   0              0              0            
         3           3   0              0              0            
         4           3   0              0              0            
         5           3   0              0              0            
         6           3   0              0              0            
         7           3   0              0              0            
         8           3   0              0              0            
         9           3   0              0              0            
        10           3   0              0              0            
        11           3   0              0              0            
        12           3   0              0              0            
        13           3   0              0              0            
        14           3   0              0              0            
        15           3   0              0              0            
        16           3   0              0              0            
        17           3   0              0              0            
        18           3   0              0              0            
        19           3   0              0              0            
        20           3   0              0              0            
        21           3   0              0              0            
        22           3   0              0              0            
        23           3   0              0              0            
        24           3   0              0              0            
        25           3   0              0              0            
        26           3   0              0              0            
        27           3   0              0              0            
        28           3   0              0              0            
        29           3   0              0              0            
        30           3   0              0              0            
        31           3   0              0              0            
        32           3   0              0              0            
        33           3   0              0              0            
        34           3   0              0              0            
        35           3   0              0              0            
        36           3   0              0              0            
        37           3   0              0              0            
        38           3   0              0              0            
        39           3   0              0              0            
        40           3   0              0              0            
        41           3   0              0              0            
        42           3   0              0              0            
        43           3   0              0              0            
        44           3   0              0              0            
        45           3   0              0              0            
        46           3   0              0              0            
        47           3   0              0              0            
        48           3   0              0              0            
        49           3   0              0              0            
        50           3   0              0              0            
        51           3   0              0              0            
        52           3   0              0              0            
        53           3   0              0              0            
        54           3   0              0              0            
        55           3   0              0              0            
        56           3   0              0              0            
        57           3   0              0              0            
        58           3   0              0              0            
        59           3   0              0              0            
        60           3   0              0              0            
        61           3   0              0              0            
        62           3   0              0              0            
        63           3   0              0              0            
        64           3   0              0              0            
        65           3   0              0              0            
        66           3   0              0              0            
        67           3   0              0              0            
        68           3   0              0              0            
        69           3   0              0              0            
        70           3   0              0              0            
        71           3   0              0              0            
        72           3   0              0              0            
        73           3   0              0              0            
        74           3   0              0              0            
        75           3   0              0              0            
        76           3   0              0              0            
        77           3   0              0              0            
        78           3   0              0              0            
        79           3   0              0              0            
        80           3   0              0              0            
        81           3   0              0              0            
        82           3   0              0              0            
        83           3   0              0              0            
        84           3   0              0              0            
        85           3   0              0              0            
        86           3   0              0              0            
        87           3   0              0              0            
        88           3   0              0              0            
        89           3   0              0              0            
        90           3   0              0              0            
        91           3   0              0              0            
        92           3   0              0              0            
        93           3   0              0              0            
        94           3   0              0              0            
        95           3   0              0              0            
        96           3   0              0              0            
        97           3   0              0              0            
        98           3   0              0              0            
        99           3   0              0              0            
       100           3   0              0              0            
Loop time of 0.000477243 on 1 procs for 100 steps with 3 atoms

Performance: 18103.985 ns/day, 0.001 hours/ns, 209536.861 timesteps/s, 628.611 katom-step/s
0.0% CPU use with 1 MPI tasks x no OpenMP threads

MPI task timing breakdown:
Section |  min time  |  avg time  |  max time  |%varavg| %total
---------------------------------------------------------------
Pair    | 4.446e-06  | 4.446e-06  | 4.446e-06  |   0.0 |  0.93
Neigh   | 0          | 0          | 0          |   0.0 |  0.00
Comm    | 4.3094e-05 | 4.3094e-05 | 4.3094e-05 |   0.0 |  9.03
Output  | 0.00038303 | 0.00038303 | 0.00038303 |   0.0 | 80.26
Modify  | 1.023e-05  | 1.023e-05  | 1.023e-05  |   0.0 |  2.14
Other   |            | 3.644e-05  |            |       |  7.64

Nlocal:              3 ave           3 max           3 min
Histogram: 1 0 0 0 0 0 0 0 0 0
Nghost:             40 ave          40 max          40 min
Histogram: 1 0 0 0 0 0 0 0 0 0
Neighs:              0 ave           0 max           0 min
Histogram: 1 0 0 0 0 0 0 0 0 0
FullNghs:            4 ave           4 max           4 min
Histogram: 1 0 0 0 0 0 0 0 0 0

Total # of neighbors = 4
Ave neighs/atom = 1.3333333
Neighbor list builds = 0
Dangerous builds = 0
Total wall time: 0:00:02
