LAMMPS (22 Jul 2025)
units           metal
atom_style      atomic
boundary        p p p

read_data       data.gst_minimal
Reading data file ...
  orthogonal box = (0 0 0) to (12 12 12)
  1 by 1 by 1 MPI processor grid
  reading atoms ...
  3 atoms
  read_data CPU = 0.001 seconds

pair_style      ai2pot ./ai2pot_libtorch.pt
AI2Pot: TorchScript model loaded successfully
  model file      : ./ai2pot_libtorch.pt
  potential type  : AI2Pot-MTP
  device          : cuda:0
  torch dtype     : float32
pair_coeff      * * Ge Sb Te
AI2Pot: pair_coeff initialized
  cutoff                 : 5.000000
  umax_num_neigh_atoms   : 200
  model_type_map  : 32 51 52 
  lmp_type_map    : 32 51 52 
  lmp2model_map   : 0 1 2 

neighbor        2.0 bin
neigh_modify    every 1 delay 0 check yes

thermo          1
thermo_style    custom step atoms pe etotal press

run             100
WARNING: No fixes with time integration, atoms won't move
For more information see https://docs.lammps.org/err0028 (../verlet.cpp:60)
Generated 0 of 3 mixed pair_coeff terms from geometric mixing rule
Neighbor list info ...
  update: every = 1 steps, delay = 0 steps, check = yes
  max neighbors/atom: 2000, page size: 100000
  master list distance cutoff = 7
  ghost atom cutoff = 7
  binsize = 3.5, bins = 4 4 4
  1 neighbor lists, perpetual/occasional/extra = 1 0 0
  (1) pair ai2pot, perpetual
      attributes: full, newton on
      pair build: full/bin/atomonly
      stencil: full/bin/3d
      bin: standard
