LAMMPS (22 Jul 2025)
units           metal
atom_style      atomic
boundary        p p p

read_data       data.gst
Reading data file ...
  orthogonal box = (0 0 0) to (18.6 18.6 18.6)
  1 by 1 by 1 MPI processor grid
  reading atoms ...
  189 atoms
  read_data CPU = 0.002 seconds

pair_style      ai2pot ./ai2pot_libtorch.pt
AI2Pot: TorchScript model loaded successfully
  model file      : ./ai2pot_libtorch.pt
  potential type  : AI2Pot-MTP
  device          : cuda:0
  torch dtype     : float32
pair_coeff      * * Ge Sb Te
AI2Pot: pair_coeff initialized
  cutoff                 : 5.000000
  umax_num_neigh_atoms   : 200
  model_type_map  : 32 51 52 
  lmp_type_map    : 32 51 52 
  lmp2model_map   : 0 1 2 

neighbor        2.0 bin
neigh_modify    every 1 delay 0 check yes

thermo          1
thermo_style    custom step atoms pe etotal press

dump            d1 all custom 1 force.dump id type x y z fx fy fz
dump_modify     d1 sort id first yes

run             10
WARNING: No fixes with time integration, atoms won't move
For more information see https://docs.lammps.org/err0028 (../verlet.cpp:60)
Generated 0 of 3 mixed pair_coeff terms from geometric mixing rule
Neighbor list info ...
  update: every = 1 steps, delay = 0 steps, check = yes
  max neighbors/atom: 2000, page size: 100000
  master list distance cutoff = 7
  ghost atom cutoff = 7
  binsize = 3.5, bins = 6 6 6
  1 neighbor lists, perpetual/occasional/extra = 1 0 0
  (1) pair ai2pot, perpetual
      attributes: full, newton on
      pair build: full/bin/atomonly
      stencil: full/bin/3d
      bin: standard
Per MPI rank memory allocation (min/avg/max) = 3.082 | 3.082 | 3.082 Mbytes
   Step        Atoms        PotEng         TotEng         Press     
         0         189  -736.32526     -736.32526      0            
         1         189  -736.3252      -736.3252       0            
         2         189  -736.3252      -736.3252       0            
         3         189  -736.3252      -736.3252       0            
         4         189  -736.3252      -736.3252       0            
         5         189  -736.3252      -736.3252       0            
         6         189  -736.3252      -736.3252       0            
         7         189  -736.3252      -736.3252       0            
         8         189  -736.3252      -736.3252       0            
         9         189  -736.3252      -736.3252       0            
        10         189  -736.3252      -736.3252       0            
Loop time of 0.12526 on 1 procs for 10 steps with 189 atoms

Performance: 6.898 ns/day, 3.479 hours/ns, 79.834 timesteps/s, 15.089 katom-step/s
48.1% CPU use with 1 MPI tasks x no OpenMP threads

MPI task timing breakdown:
Section |  min time  |  avg time  |  max time  |%varavg| %total
---------------------------------------------------------------
Pair    | 0.12       | 0.12       | 0.12       |   0.0 | 95.80
Neigh   | 0          | 0          | 0          |   0.0 |  0.00
Comm    | 7.2367e-05 | 7.2367e-05 | 7.2367e-05 |   0.0 |  0.06
Output  | 0.0051356  | 0.0051356  | 0.0051356  |   0.0 |  4.10
Modify  | 6.492e-06  | 6.492e-06  | 6.492e-06  |   0.0 |  0.01
Other   |            | 4.303e-05  |            |       |  0.03

Nlocal:            189 ave         189 max         189 min
Histogram: 1 0 0 0 0 0 0 0 0 0
Nghost:            813 ave         813 max         813 min
Histogram: 1 0 0 0 0 0 0 0 0 0
Neighs:              0 ave           0 max           0 min
Histogram: 1 0 0 0 0 0 0 0 0 0
FullNghs:         7928 ave        7928 max        7928 min
Histogram: 1 0 0 0 0 0 0 0 0 0

Total # of neighbors = 7928
Ave neighs/atom = 41.94709
Neighbor list builds = 0
Dangerous builds = 0
Total wall time: 0:00:02
