 vasp.5.4.4.18Apr17-6-g9f103f2a35 (build Aug 13 2019 14:24:17) gamma-only       
  
 executed on             LinuxIFC date 2024.11.11  19:10:31
 running on   24 total cores
 distrk:  each k-point on   24 cores,    1 groups
 distr:  one band on NCORES_PER_BAND=   1 cores,   24 groups


--------------------------------------------------------------------------------------------------------


 INCAR:
 POTCAR:   PAW_PBE Mo 08Apr2002                   
 POTCAR:    PAW_PBE S 17Jan2003                   

 ----------------------------------------------------------------------------- 
|                                                                             |
|           W    W    AA    RRRRR   N    N  II  N    N   GGGG   !!!           |
|           W    W   A  A   R    R  NN   N  II  NN   N  G    G  !!!           |
|           W    W  A    A  R    R  N N  N  II  N N  N  G       !!!           |
|           W WW W  AAAAAA  RRRRR   N  N N  II  N  N N  G  GGG   !            |
|           WW  WW  A    A  R   R   N   NN  II  N   NN  G    G                |
|           W    W  A    A  R    R  N    N  II  N    N   GGGG   !!!           |
|                                                                             |
|      For optimal performance we recommend to set                            |
|        NCORE= 4 - approx SQRT( number of cores)                             |
|      NCORE specifies how many cores store one orbital (NPAR=cpu/NCORE).     |
|      This setting can  greatly improve the performance of VASP for DFT.     |
|      The default,   NCORE=1            might be grossly inefficient         |
|      on modern multi-core architectures or massively parallel machines.     |
|      Do your own testing !!!!                                               |
|      Unfortunately you need to use the default for GW and RPA calculations. |
|      (for HF NCORE is supported but not extensively tested yet)             |
|                                                                             |
 ----------------------------------------------------------------------------- 

 POTCAR:   PAW_PBE Mo 08Apr2002                   
  local pseudopotential read in
  partial core-charges read in
  atomic valenz-charges read in
  non local Contribution for L=           2  read in
    real space projection operators read in
  non local Contribution for L=           2  read in
    real space projection operators read in
  non local Contribution for L=           0  read in
    real space projection operators read in
  non local Contribution for L=           0  read in
    real space projection operators read in
  non local Contribution for L=           1  read in
    real space projection operators read in
  non local Contribution for L=           1  read in
    real space projection operators read in
    PAW grid and wavefunctions read in
 
   number of l-projection  operators is LMAX  =           6
   number of lm-projection operators is LMMAX =          18
 
 POTCAR:    PAW_PBE S 17Jan2003                   
  local pseudopotential read in
  partial core-charges read in
  atomic valenz-charges read in
  non local Contribution for L=           0  read in
    real space projection operators read in
  non local Contribution for L=           0  read in
    real space projection operators read in
  non local Contribution for L=           1  read in
    real space projection operators read in
  non local Contribution for L=           1  read in
    real space projection operators read in
    PAW grid and wavefunctions read in
 
   number of l-projection  operators is LMAX  =           4
   number of lm-projection operators is LMMAX =           8
 
 Optimization of the real space projectors (new method)

 maximal supplied QI-value         = 13.61
 optimisation between [QCUT,QGAM] = [  9.52, 19.05] = [ 25.40,101.61] Ry 
 Optimized for a Real-space Cutoff    1.71 Angstroem

   l    n(q)    QCUT    max X(q) W(low)/X(q) W(high)/X(q)  e(spline) 
   2      9     9.524     3.671    0.59E-05    0.24E-04    0.55E-07
   2      9     9.524    29.382    0.46E-03    0.53E-03    0.60E-06
   0     10     9.524    26.379    0.19E-04    0.28E-05    0.88E-08
   0     10     9.524    49.709    0.39E-04    0.47E-04    0.62E-07
   1      9     9.524     7.852    0.33E-04    0.17E-04    0.25E-07
   1      9     9.524    10.693    0.17E-03    0.12E-03    0.91E-07
 Optimization of the real space projectors (new method)

 maximal supplied QI-value         = 19.84
 optimisation between [QCUT,QGAM] = [  9.52, 19.05] = [ 25.40,101.61] Ry 
 Optimized for a Real-space Cutoff    1.27 Angstroem

   l    n(q)    QCUT    max X(q) W(low)/X(q) W(high)/X(q)  e(spline) 
   0      7     9.524     5.487    0.29E-04    0.26E-05    0.49E-08
   0      7     9.524    85.627    0.43E-03    0.38E-03    0.74E-07
   1      7     9.524     3.530    0.60E-04    0.11E-03    0.19E-07
   1      7     9.524    42.714    0.45E-03    0.58E-04    0.18E-06
 PAW_PBE Mo 08Apr2002                   :
 energy of atom  1       EATOM= -217.5180
 kinetic energy error for atom=    0.0059 (will be added to EATOM!!)
  PAW_PBE S 17Jan2003                   :
 energy of atom  2       EATOM= -276.8230
 kinetic energy error for atom=    0.0051 (will be added to EATOM!!)
 
 
 POSCAR: Mo36 S72                                
  positions in direct lattice
  No initial velocities read in
 exchange correlation table for  LEXCH =        8
   RHO(1)=    0.500       N(1)  =     2000
   RHO(2)=  100.500       N(2)  =     4000

 VTST: version 3.2, (02/03/18)

 CHAIN: initializing optimizer
 
 OPT: Using VASP Dynamics algorithm
 CHAIN: Read ICHAIN            0
 
 POSCAR: Mo36 S72                                
  positions in direct lattice
  No initial velocities read in
 


--------------------------------------------------------------------------------------------------------


 ion  position               nearest neighbor table
   1  0.056  0.111  0.500-  37 2.42  38 2.42  39 2.42  40 2.42  97 2.42  98 2.42   7 3.19   8 3.19
                             2 3.19   6 3.19  31 3.19  36 3.19
   2  0.056  0.278  0.500-  39 2.42  40 2.42  41 2.42  42 2.42  99 2.42 100 2.42   3 3.19   8 3.19
                             9 3.19   1 3.19  32 3.19  31 3.19
   3  0.056  0.444  0.500-  41 2.42  42 2.42  43 2.42  44 2.42 101 2.42 102 2.42   2 3.19   9 3.19
                            10 3.19  32 3.19   4 3.19  33 3.19
   4  0.056  0.611  0.500-  43 2.42  44 2.42  45 2.42  46 2.42 103 2.42 104 2.42  10 3.19  11 3.19
                             5 3.19   3 3.19  34 3.19  33 3.19
   5  0.056  0.778  0.500-  45 2.42  46 2.42  47 2.42  48 2.42 105 2.42 106 2.42   6 3.19  11 3.19
                            12 3.19   4 3.19  35 3.19  34 3.19
   6  0.056  0.944  0.500-  47 2.42  48 2.42  37 2.42  38 2.42 107 2.42 108 2.42   5 3.19  12 3.19
                             7 3.19  35 3.19   1 3.19  36 3.19
   7  0.222  0.111  0.500-  49 2.42  50 2.42  37 2.42  38 2.42  51 2.42  52 2.42   1 3.19   6 3.19
                             8 3.19  13 3.19  12 3.19  14 3.19
   8  0.222  0.278  0.500-  39 2.42  40 2.42  53 2.42  54 2.42  51 2.42  52 2.42   2 3.19   9 3.19
                             1 3.19  15 3.19  14 3.19   7 3.19
   9  0.222  0.444  0.500-  53 2.42  54 2.42  41 2.42  42 2.42  55 2.42  56 2.42   3 3.19   8 3.19
                             2 3.19  15 3.19  10 3.19  16 3.19
  10  0.222  0.611  0.500-  55 2.42  56 2.42  43 2.42  44 2.42  57 2.42  58 2.42   4 3.19   3 3.19
                            11 3.19  16 3.19   9 3.19  17 3.19
  11  0.222  0.778  0.500-  45 2.42  46 2.42  59 2.42  60 2.42  57 2.42  58 2.42   5 3.19  12 3.19
                             4 3.19  18 3.19  17 3.19  10 3.19
  12  0.222  0.944  0.500-  59 2.42  60 2.42  47 2.42  48 2.42  49 2.42  50 2.42   6 3.19  11 3.19
                             5 3.19  18 3.19   7 3.19  13 3.19
  13  0.389  0.111  0.500-  61 2.42  62 2.42  49 2.42  50 2.42  63 2.42  64 2.42   7 3.19  14 3.19
                            18 3.19  19 3.19  12 3.19  20 3.19
  14  0.389  0.278  0.500-  63 2.42  64 2.42  65 2.42  66 2.42  51 2.42  52 2.42  15 3.19  21 3.19
                             8 3.19  13 3.19  20 3.19   7 3.19
  15  0.389  0.444  0.500-  65 2.42  66 2.42  53 2.42  54 2.42  67 2.42  68 2.42  14 3.19   8 3.19
                             9 3.19  16 3.19  21 3.19  22 3.19
  16  0.389  0.611  0.500-  67 2.42  68 2.42  55 2.42  56 2.42  69 2.42  70 2.42  10 3.19  17 3.19
                            15 3.19  22 3.19   9 3.19  23 3.19
  17  0.389  0.778  0.500-  69 2.42  70 2.42  71 2.42  72 2.42  57 2.42  58 2.42  18 3.19  24 3.19
                            11 3.19  16 3.19  23 3.19  10 3.19
  18  0.389  0.944  0.500-  71 2.42  72 2.42  59 2.42  60 2.42  61 2.42  62 2.42  17 3.19  11 3.19
                            12 3.19  13 3.19  24 3.19  19 3.19
  19  0.556  0.111  0.500-  73 2.42  74 2.42  75 2.42  76 2.42  61 2.42  62 2.42  25 3.19  26 3.19
                            20 3.19  13 3.19  24 3.19  18 3.19
  20  0.556  0.278  0.500-  75 2.42  76 2.42  77 2.42  78 2.42  63 2.42  64 2.42  21 3.19  26 3.19
                            27 3.19  19 3.19  14 3.19  13 3.19
  21  0.556  0.444  0.500-  77 2.42  78 2.42  65 2.42  66 2.42  79 2.42  80 2.42  20 3.19  27 3.19
                            14 3.19  28 3.19  15 3.19  22 3.19
  22  0.556  0.611  0.500-  79 2.42  80 2.42  81 2.42  82 2.42  67 2.42  68 2.42  28 3.19  29 3.19
                            23 3.19  21 3.19  16 3.19  15 3.19
  23  0.556  0.778  0.500-  81 2.42  82 2.42  83 2.42  84 2.42  69 2.42  70 2.42  24 3.19  29 3.19
                            30 3.19  22 3.19  17 3.19  16 3.19
  24  0.556  0.944  0.500-  83 2.42  84 2.42  73 2.42  74 2.42  71 2.42  72 2.42  23 3.19  30 3.19
                            25 3.19  17 3.19  19 3.19  18 3.19
  25  0.722  0.111  0.500-  85 2.42  86 2.42  73 2.42  74 2.42  87 2.42  88 2.42  19 3.19  24 3.19
                            26 3.19  31 3.19  30 3.19  32 3.19
  26  0.722  0.278  0.500-  75 2.42  76 2.42  89 2.42  90 2.42  87 2.42  88 2.42  20 3.19  27 3.19
                            19 3.19  33 3.19  32 3.19  25 3.19
  27  0.722  0.444  0.500-  89 2.42  90 2.42  77 2.42  78 2.42  91 2.42  92 2.42  21 3.19  26 3.19
                            20 3.19  33 3.19  28 3.19  34 3.19
  28  0.722  0.611  0.500-  91 2.42  92 2.42  79 2.42  80 2.42  93 2.42  94 2.42  22 3.19  21 3.19
                            29 3.19  34 3.19  27 3.19  35 3.19
  29  0.722  0.778  0.500-  81 2.42  82 2.42  95 2.42  96 2.42  93 2.42  94 2.42  23 3.19  30 3.19
                            22 3.19  36 3.19  35 3.19  28 3.19
  30  0.722  0.944  0.500-  95 2.42  96 2.42  83 2.42  84 2.42  85 2.42  86 2.42  24 3.19  29 3.19
                            23 3.19  36 3.19  25 3.19  31 3.19
  31  0.889  0.111  0.500-  97 2.42  98 2.42  85 2.42  86 2.42  99 2.42 100 2.42  25 3.19  32 3.19
                             1 3.19  36 3.19   2 3.19  30 3.19
  32  0.889  0.278  0.500-  99 2.42 100 2.42 101 2.42 102 2.42  87 2.42  88 2.42  33 3.19   3 3.19
                            31 3.19  26 3.19   2 3.19  25 3.19
  33  0.889  0.444  0.500- 101 2.42 102 2.42  89 2.42  90 2.42 103 2.42 104 2.42  32 3.19  26 3.19
                            27 3.19   3 3.19  34 3.19   4 3.19
  34  0.889  0.611  0.500- 103 2.42 104 2.42  91 2.42  92 2.42 105 2.42 106 2.42  28 3.19  35 3.19
                            33 3.19   4 3.19  27 3.19   5 3.19
  35  0.889  0.778  0.500- 105 2.42 106 2.42 107 2.42 108 2.42  93 2.42  94 2.42  36 3.19   6 3.19
                            34 3.19  29 3.19   5 3.19  28 3.19
  36  0.889  0.944  0.500- 107 2.42 108 2.42  95 2.42  96 2.42  97 2.42  98 2.42  35 3.19  29 3.19
                            30 3.19  31 3.19   6 3.19   1 3.19
  37  0.111  0.056  0.568-   1 2.42   7 2.42   6 2.42
  38  0.111  0.056  0.432-   1 2.42   7 2.42   6 2.42
  39  0.111  0.222  0.568-   2 2.42   1 2.42   8 2.42
  40  0.111  0.222  0.432-   2 2.42   1 2.42   8 2.42
  41  0.111  0.389  0.568-   3 2.42   2 2.42   9 2.42
  42  0.111  0.389  0.432-   3 2.42   2 2.42   9 2.42
  43  0.111  0.556  0.568-   4 2.42  10 2.42   3 2.42
  44  0.111  0.556  0.432-   4 2.42  10 2.42   3 2.42
  45  0.111  0.722  0.568-   5 2.42   4 2.42  11 2.42
  46  0.111  0.722  0.432-   5 2.42   4 2.42  11 2.42
  47  0.111  0.889  0.568-   6 2.42   5 2.42  12 2.42
  48  0.111  0.889  0.432-   6 2.42   5 2.42  12 2.42
  49  0.278  0.056  0.568-   7 2.42  13 2.42  12 2.42
  50  0.278  0.056  0.432-   7 2.42  13 2.42  12 2.42
  51  0.278  0.222  0.568-   7 2.42  14 2.42   8 2.42
  52  0.278  0.222  0.432-   7 2.42  14 2.42   8 2.42
  53  0.278  0.389  0.568-   9 2.42  15 2.42   8 2.42
  54  0.278  0.389  0.432-   9 2.42  15 2.42   8 2.42
  55  0.278  0.556  0.568-  10 2.42  16 2.42   9 2.42
  56  0.278  0.556  0.432-  10 2.42  16 2.42   9 2.42
  57  0.278  0.722  0.568-  10 2.42  17 2.42  11 2.42
  58  0.278  0.722  0.432-  10 2.42  17 2.42  11 2.42
  59  0.278  0.889  0.568-  12 2.42  18 2.42  11 2.42
  60  0.278  0.889  0.432-  12 2.42  18 2.42  11 2.42
  61  0.444  0.056  0.568-  13 2.42  18 2.42  19 2.42
  62  0.444  0.056  0.432-  13 2.42  18 2.42  19 2.42
  63  0.444  0.222  0.568-  14 2.42  13 2.42  20 2.42
  64  0.444  0.222  0.432-  14 2.42  13 2.42  20 2.42
  65  0.444  0.389  0.568-  15 2.42  14 2.42  21 2.42
  66  0.444  0.389  0.432-  15 2.42  14 2.42  21 2.42
  67  0.444  0.556  0.568-  16 2.42  15 2.42  22 2.42
  68  0.444  0.556  0.432-  16 2.42  15 2.42  22 2.42
  69  0.444  0.722  0.568-  17 2.42  16 2.42  23 2.42
  70  0.444  0.722  0.432-  17 2.42  16 2.42  23 2.42
  71  0.444  0.889  0.568-  18 2.42  17 2.42  24 2.42
  72  0.444  0.889  0.432-  18 2.42  17 2.42  24 2.42
  73  0.611  0.056  0.568-  19 2.42  25 2.42  24 2.42
  74  0.611  0.056  0.432-  19 2.42  25 2.42  24 2.42
  75  0.611  0.222  0.568-  20 2.42  19 2.42  26 2.42
  76  0.611  0.222  0.432-  20 2.42  19 2.42  26 2.42
  77  0.611  0.389  0.568-  21 2.42  20 2.42  27 2.42
  78  0.611  0.389  0.432-  21 2.42  20 2.42  27 2.42
  79  0.611  0.556  0.568-  22 2.42  28 2.42  21 2.42
  80  0.611  0.556  0.432-  22 2.42  28 2.42  21 2.42
  81  0.611  0.722  0.568-  23 2.42  22 2.42  29 2.42
  82  0.611  0.722  0.432-  23 2.42  22 2.42  29 2.42
  83  0.611  0.889  0.568-  24 2.42  23 2.42  30 2.42
  84  0.611  0.889  0.432-  24 2.42  23 2.42  30 2.42
  85  0.778  0.056  0.568-  25 2.42  31 2.42  30 2.42
  86  0.778  0.056  0.432-  25 2.42  31 2.42  30 2.42
  87  0.778  0.222  0.568-  25 2.42  32 2.42  26 2.42
  88  0.778  0.222  0.432-  25 2.42  32 2.42  26 2.42
  89  0.778  0.389  0.568-  27 2.42  33 2.42  26 2.42
  90  0.778  0.389  0.432-  27 2.42  33 2.42  26 2.42
  91  0.778  0.556  0.568-  28 2.42  34 2.42  27 2.42
  92  0.778  0.556  0.432-  28 2.42  34 2.42  27 2.42
  93  0.778  0.722  0.568-  28 2.42  35 2.42  29 2.42
  94  0.778  0.722  0.432-  28 2.42  35 2.42  29 2.42
  95  0.778  0.889  0.568-  30 2.42  36 2.42  29 2.42
  96  0.778  0.889  0.432-  30 2.42  36 2.42  29 2.42
  97  0.944  0.056  0.568-  31 2.42   1 2.42  36 2.42
  98  0.944  0.056  0.432-  31 2.42   1 2.42  36 2.42
  99  0.944  0.222  0.568-  32 2.42  31 2.42   2 2.42
 100  0.944  0.222  0.432-  32 2.42  31 2.42   2 2.42
 101  0.944  0.389  0.568-  33 2.42  32 2.42   3 2.42
 102  0.944  0.389  0.432-  33 2.42  32 2.42   3 2.42
 103  0.944  0.556  0.568-  34 2.42  33 2.42   4 2.42
 104  0.944  0.556  0.432-  34 2.42  33 2.42   4 2.42
 105  0.944  0.722  0.568-  35 2.42  34 2.42   5 2.42
 106  0.944  0.722  0.432-  35 2.42  34 2.42   5 2.42
 107  0.944  0.889  0.568-  36 2.42  35 2.42   6 2.42
 108  0.944  0.889  0.432-  36 2.42  35 2.42   6 2.42
 

IMPORTANT INFORMATION: All symmetrisations will be switched off!
NOSYMM: (Re-)initialisation of all symmetry stuff for point group C_1.

 
 
 KPOINTS: K-Spacing Value to Generate K-Mesh: 0.04

Automatic generation of k-mesh.
Space group operators:
 irot       det(A)        alpha          n_x          n_y          n_z        tau_x        tau_y        tau_z
    1     1.000000     0.000001     1.000000     0.000000     0.000000     0.000000     0.000000     0.000000
 
 Subroutine IBZKPT returns following result:
 ===========================================
 
 Found      1 irreducible k-points:
 
 Following reciprocal coordinates:
            Coordinates               Weight
  0.000000  0.000000  0.000000      1.000000
 
 Following cartesian coordinates:
            Coordinates               Weight
  0.000000  0.000000  0.000000      1.000000
 


--------------------------------------------------------------------------------------------------------




 Dimension of arrays:
   k-points           NKPTS =      1   k-points in BZ     NKDIM =      1   number of bands    NBANDS=    408
   number of dos      NEDOS =    301   number of ions     NIONS =    108
   non local maximal  LDIM  =      6   non local SUM 2l+1 LMDIM =     18
   total plane-waves  NPLWV = 874800
   max r-space proj   IRMAX =   2547   max aug-charges    IRDMAX=  61342
   dimension x,y,z NGX =    90 NGY =   90 NGZ =  108
   dimension x,y,z NGXF=   180 NGYF=  180 NGZF=  216
   support grid    NGXF=   360 NGYF=  360 NGZF=  432
   ions per type =              36  72
   NGX,Y,Z   is equivalent  to a cutoff of   7.81,  7.81,  7.76 a.u.
   NGXF,Y,Z  is equivalent  to a cutoff of  15.62, 15.62, 15.53 a.u.

 SYSTEM =  unknown system                          
 POSCAR =  Mo36 S72                                

 Startparameter for this run:
   NWRITE =      1    write-flag & timer
   PREC   = normal    normal or accurate (medium, high low for compatibility)
   ISTART =      0    job   : 0-new  1-cont  2-samecut
   ICHARG =      2    charge: 1-file 2-atom 10-const
   ISPIN  =      1    spin polarized calculation?
   LNONCOLLINEAR =      F non collinear calculations
   LSORBIT =      F    spin-orbit coupling
   INIWAV =      1    electr: 0-lowe 1-rand  2-diag
   LASPH  =      F    aspherical Exc in radial PAW
   METAGGA=      F    non-selfconsistent MetaGGA calc.

 Electronic Relaxation 1
   ENCUT  =  350.0 eV  25.72 Ry    5.07 a.u.  29.22 29.22 35.28*2*pi/ulx,y,z
   ENINI  =  350.0     initial cutoff
   ENAUG  =  345.3 eV  augmentation charge cutoff
   NELM   =     60;   NELMIN=  2; NELMDL=  0     # of ELM steps 
   EDIFF  = 0.1E-04   stopping-criterion for ELM
   LREAL  =      T    real-space projection
   NLSPLINE    = F    spline interpolate recip. space projectors
   LCOMPAT=      F    compatible to vasp.4.4
   GGA_COMPAT  = T    GGA compatible to vasp.4.4-vasp.4.6
   LMAXPAW     = -100 max onsite density
   LMAXMIX     =    2 max onsite mixed and CHGCAR
   VOSKOWN=      0    Vosko Wilk Nusair interpolation
   ROPT   =   -0.00050  -0.00050
 Ionic relaxation
   EDIFFG = -.1E-01   stopping-criterion for IOM
   NSW    =     30    number of steps for IOM
   NBLOCK =      1;   KBLOCK =     30    inner block; outer block 
   IBRION =      0    ionic relax: 0-MD 1-quasi-New 2-CG
   NFREE  =      0    steps in history (QN), initial steepest desc. (CG)
   ISIF   =      2    stress and relaxation
   IWAVPR =     12    prediction:  0-non 1-charg 2-wave 3-comb
   ISYM   =      0    0-nonsym 1-usesym 2-fastsym
   LCORR  =      T    Harris-Foulkes like correction to forces

   POTIM  = 2.0000    time-step for ionic-motion
   TEIN   =  300.0    initial temperature
   TEBEG  =  300.0;   TEEND  = 300.0 temperature during run
   SMASS  =   0.07    Nose mass-parameter (am)
   estimated Nose-frequenzy (Omega)   =  0.79E+14 period in steps = 40.00 mass=   0.200E-27a.u.
   SCALEE = 1.0000    scale energy and forces
   NPACO  =    256;   APACO  = 16.0  distance and # of slots for P.C.
   PSTRESS=    0.0 pullay stress

  Mass of Ions in am
   POMASS =  95.94 32.07
  Ionic Valenz
   ZVAL   =   6.00  6.00
  Atomic Wigner-Seitz radii
   RWIGS  =  -1.00 -1.00
  virtual crystal weights 
   VCA    =   1.00  1.00
   NELECT =     648.0000    total number of electrons
   NUPDOWN=      -1.0000    fix difference up-down

 DOS related values:
   EMIN   =  10.00;   EMAX   =-10.00  energy-range for DOS
   EFERMI =   0.00
   ISMEAR =     0;   SIGMA  =   0.05  broadening in eV -4-tet -1-fermi 0-gaus

 Electronic relaxation 2 (details)
   IALGO  =     38    algorithm
   LDIAG  =      T    sub-space diagonalisation (order eigenvalues)
   LSUBROT=      F    optimize rotation matrix (better conditioning)
   TURBO    =      0    0=normal 1=particle mesh
   IRESTART =      0    0=no restart 2=restart with 2 vectors
   NREBOOT  =      0    no. of reboots
   NMIN     =      0    reboot dimension
   EREF     =   0.00    reference energy to select bands
   IMIX   =      4    mixing-type and parameters
     AMIX     =   0.40;   BMIX     =  1.00
     AMIX_MAG =   1.60;   BMIX_MAG =  1.00
     AMIN     =   0.10
     WC   =   100.;   INIMIX=   1;  MIXPRE=   1;  MAXMIX= -45

 Intra band minimization:
   WEIMIN = 0.0010     energy-eigenvalue tresh-hold
   EBREAK =  0.61E-08  absolut break condition
   DEPER  =   0.30     relativ break condition  

   TIME   =   0.40     timestep for ELM

  volume/ion in A,a.u.               =      68.04       459.14
  Fermi-wavevector in a.u.,A,eV,Ry     =   0.728692  1.377028  7.224581  0.530992
  Thomas-Fermi vector in A             =   1.820228
 
 Write flags
   LWAVE        =      F    write WAVECAR
   LDOWNSAMPLE  =      F    k-point downsampling of WAVECAR
   LCHARG       =      F    write CHGCAR
   LVTOT        =      F    write LOCPOT, total local potential
   LVHAR        =      F    write LOCPOT, Hartree potential only
   LELF         =      F    write electronic localiz. function (ELF)
   LORBIT       =      0    0 simple, 1 ext, 2 COOP (PROOUT), +10 PAW based schemes


 Dipole corrections
   LMONO  =      F    monopole corrections only (constant potential shift)
   LDIPOL =      F    correct potential (dipole corrections)
   IDIPOL =      0    1-x, 2-y, 3-z, 4-all directions 
   EPSILON=  1.0000000 bulk dielectric constant

 Exchange correlation treatment:
   GGA     =    --    GGA type
   LEXCH   =     8    internal setting for exchange type
   VOSKOWN=      0    Vosko Wilk Nusair interpolation
   LHFCALC =     F    Hartree Fock is set to
   LHFONE  =     F    Hartree Fock one center treatment
   AEXX    =    0.0000 exact exchange contribution

 Linear response parameters
   LEPSILON=     F    determine dielectric tensor
   LRPA    =     F    only Hartree local field effects (RPA)
   LNABLA  =     F    use nabla operator in PAW spheres
   LVEL    =     F    velocity operator in full k-point grid
   LINTERFAST=   F  fast interpolation
   KINTER  =     0    interpolate to denser k-point grid
   CSHIFT  =0.1000    complex shift for real part using Kramers Kronig
   OMEGAMAX=  -1.0    maximum frequency
   DEG_THRESHOLD= 0.2000000E-02 threshold for treating states as degnerate
   RTIME   =   -0.100 relaxation time in fs
  (WPLASMAI=    0.000 imaginary part of plasma frequency in eV, 0.658/RTIME)
   DFIELD  = 0.0000000 0.0000000 0.0000000 field for delta impulse in time
 
 Orbital magnetization related:
   ORBITALMAG=     F  switch on orbital magnetization
   LCHIMAG   =     F  perturbation theory with respect to B field
   DQ        =  0.001000  dq finite difference perturbation B field
   LLRAUG    =     F  two centre corrections for induced B field



--------------------------------------------------------------------------------------------------------


 molecular dynamics for ions
   using nose mass (canonical ensemble)
   using selective dynamics as specified on POSCAR
 charge density and potential will be updated during run
 non-spin polarized calculation
 Variant of blocked Davidson
 Davidson routine will perform the subspace rotation
 perform sub-space diagonalisation
    after iterative eigenvector-optimisation
 modified Broyden-mixing scheme, WC =      100.0
 initial mixing is a Kerker type mixing with AMIX =  0.4000 and BMIX =      1.0000
 Hartree-type preconditioning will be used
 using additional bands           84
 real space projection scheme for non local part
 use partial core corrections
 calculate Harris-corrections to forces 
   (improved forces if not selfconsistent)
 use gradient corrections 
 use of overlap-Matrix (Vanderbilt PP)
 Gauss-broadening in eV      SIGMA  =   0.05


--------------------------------------------------------------------------------------------------------


  energy-cutoff  :      350.00
  volume of cell :     7347.98
      direct lattice vectors                 reciprocal lattice vectors
     9.576714000-16.587355000  0.000000000     0.052209975 -0.030143444  0.000000000
     9.576714000 16.587355000  0.000000000     0.052209975  0.030143444  0.000000000
     0.000000000  0.000000000 23.128327000     0.000000000  0.000000000  0.043237023

  length of vectors
    19.153427812 19.153427812 23.128327000     0.060286887  0.060286887  0.043237023


 
 k-points in units of 2pi/SCALE and weight: K-Spacing Value to Generate K-Mesh: 0.04
   0.00000000  0.00000000  0.00000000       1.000
 
 k-points in reciprocal lattice and weights: K-Spacing Value to Generate K-Mesh: 0.04
   0.00000000  0.00000000  0.00000000       1.000
 
 position of ions in fractional coordinates (direct lattice) 
   0.05555600  0.11111100  0.50000000
   0.05555600  0.27777800  0.50000000
   0.05555600  0.44444400  0.50000000
   0.05555600  0.61111100  0.50000000
   0.05555600  0.77777800  0.50000000
   0.05555600  0.94444400  0.50000000
   0.22222200  0.11111100  0.50000000
   0.22222200  0.27777800  0.50000000
   0.22222200  0.44444400  0.50000000
   0.22222200  0.61111100  0.50000000
   0.22222200  0.77777800  0.50000000
   0.22222200  0.94444400  0.50000000
   0.38888900  0.11111100  0.50000000
   0.38888900  0.27777800  0.50000000
   0.38888900  0.44444400  0.50000000
   0.38888900  0.61111100  0.50000000
   0.38888900  0.77777800  0.50000000
   0.38888900  0.94444400  0.50000000
   0.55555600  0.11111100  0.50000000
   0.55555600  0.27777800  0.50000000
   0.55555600  0.44444400  0.50000000
   0.55555600  0.61111100  0.50000000
   0.55555600  0.77777800  0.50000000
   0.55555600  0.94444400  0.50000000
   0.72222200  0.11111100  0.50000000
   0.72222200  0.27777800  0.50000000
   0.72222200  0.44444400  0.50000000
   0.72222200  0.61111100  0.50000000
   0.72222200  0.77777800  0.50000000
   0.72222200  0.94444400  0.50000000
   0.88888900  0.11111100  0.50000000
   0.88888900  0.27777800  0.50000000
   0.88888900  0.44444400  0.50000000
   0.88888900  0.61111100  0.50000000
   0.88888900  0.77777800  0.50000000
   0.88888900  0.94444400  0.50000000
   0.11111100  0.05555600  0.56763000
   0.11111100  0.05555600  0.43237000
   0.11111100  0.22222200  0.56763000
   0.11111100  0.22222200  0.43237000
   0.11111100  0.38888900  0.56763000
   0.11111100  0.38888900  0.43237000
   0.11111100  0.55555600  0.56763000
   0.11111100  0.55555600  0.43237000
   0.11111100  0.72222200  0.56763000
   0.11111100  0.72222200  0.43237000
   0.11111100  0.88888900  0.56763000
   0.11111100  0.88888900  0.43237000
   0.27777800  0.05555600  0.56763000
   0.27777800  0.05555600  0.43237000
   0.27777800  0.22222200  0.56763000
   0.27777800  0.22222200  0.43237000
   0.27777800  0.38888900  0.56763000
   0.27777800  0.38888900  0.43237000
   0.27777800  0.55555600  0.56763000
   0.27777800  0.55555600  0.43237000
   0.27777800  0.72222200  0.56763000
   0.27777800  0.72222200  0.43237000
   0.27777800  0.88888900  0.56763000
   0.27777800  0.88888900  0.43237000
   0.44444400  0.05555600  0.56763000
   0.44444400  0.05555600  0.43237000
   0.44444400  0.22222200  0.56763000
   0.44444400  0.22222200  0.43237000
   0.44444400  0.38888900  0.56763000
   0.44444400  0.38888900  0.43237000
   0.44444400  0.55555600  0.56763000
   0.44444400  0.55555600  0.43237000
   0.44444400  0.72222200  0.56763000
   0.44444400  0.72222200  0.43237000
   0.44444400  0.88888900  0.56763000
   0.44444400  0.88888900  0.43237000
   0.61111100  0.05555600  0.56763000
   0.61111100  0.05555600  0.43237000
   0.61111100  0.22222200  0.56763000
   0.61111100  0.22222200  0.43237000
   0.61111100  0.38888900  0.56763000
   0.61111100  0.38888900  0.43237000
   0.61111100  0.55555600  0.56763000
   0.61111100  0.55555600  0.43237000
   0.61111100  0.72222200  0.56763000
   0.61111100  0.72222200  0.43237000
   0.61111100  0.88888900  0.56763000
   0.61111100  0.88888900  0.43237000
   0.77777800  0.05555600  0.56763000
   0.77777800  0.05555600  0.43237000
   0.77777800  0.22222200  0.56763000
   0.77777800  0.22222200  0.43237000
   0.77777800  0.38888900  0.56763000
   0.77777800  0.38888900  0.43237000
   0.77777800  0.55555600  0.56763000
   0.77777800  0.55555600  0.43237000
   0.77777800  0.72222200  0.56763000
   0.77777800  0.72222200  0.43237000
   0.77777800  0.88888900  0.56763000
   0.77777800  0.88888900  0.43237000
   0.94444400  0.05555600  0.56763000
   0.94444400  0.05555600  0.43237000
   0.94444400  0.22222200  0.56763000
   0.94444400  0.22222200  0.43237000
   0.94444400  0.38888900  0.56763000
   0.94444400  0.38888900  0.43237000
   0.94444400  0.55555600  0.56763000
   0.94444400  0.55555600  0.43237000
   0.94444400  0.72222200  0.56763000
   0.94444400  0.72222200  0.43237000
   0.94444400  0.88888900  0.56763000
   0.94444400  0.88888900  0.43237000
 
 position of ions in cartesian coordinates  (Angst):
   1.59612219  0.92151051 11.56416350
   3.19224438  3.68607520 11.56416350
   4.78835700  6.45062331 11.56416350
   6.38447919  9.21518801 11.56416350
   7.98060138 11.97975270 11.56416350
   9.57671400 14.74430081 11.56416350
   3.19223481 -1.84303760 11.56416350
   4.78835700  0.92152709 11.56416350
   6.38446962  3.68607520 11.56416350
   7.98059181  6.45063990 11.56416350
   9.57671400  9.21520459 11.56416350
  11.17282662 11.97975270 11.56416350
   4.78835700 -4.60760230 11.56416350
   6.38447919 -1.84303760 11.56416350
   7.98059181  0.92151051 11.56416350
   9.57671400  3.68607520 11.56416350
  11.17283619  6.45063990 11.56416350
  12.76894881  9.21518801 11.56416350
   6.38447919 -7.37216699 11.56416350
   7.98060138 -4.60760230 11.56416350
   9.57671400 -1.84305419 11.56416350
  11.17283619  0.92151051 11.56416350
  12.76895838  3.68607520 11.56416350
  14.36507100  6.45062331 11.56416350
   7.98059181-10.13671510 11.56416350
   9.57671400 -7.37215041 11.56416350
  11.17282662 -4.60760230 11.56416350
  12.76894881 -1.84303760 11.56416350
  14.36507100  0.92152709 11.56416350
  15.96118362  3.68607520 11.56416350
   9.57671400-12.90127980 11.56416350
  11.17283619-10.13671510 11.56416350
  12.76894881 -7.37216699 11.56416350
  14.36507100 -4.60760230 11.56416350
  15.96119319 -1.84303760 11.56416350
  17.55730581  0.92151051 11.56416350
   1.59612219 -0.92151051 13.12833226
   1.59612219 -0.92151051  9.99999474
   3.19223481  1.84303760 13.12833226
   3.19223481  1.84303760  9.99999474
   4.78835700  4.60760230 13.12833226
   4.78835700  4.60760230  9.99999474
   6.38447919  7.37216699 13.12833226
   6.38447919  7.37216699  9.99999474
   7.98059181 10.13671510 13.12833226
   7.98059181 10.13671510  9.99999474
   9.57671400 12.90127980 13.12833226
   9.57671400 12.90127980  9.99999474
   3.19224438 -3.68607520 13.12833226
   3.19224438 -3.68607520  9.99999474
   4.78835700 -0.92152709 13.12833226
   4.78835700 -0.92152709  9.99999474
   6.38447919  1.84303760 13.12833226
   6.38447919  1.84303760  9.99999474
   7.98060138  4.60760230 13.12833226
   7.98060138  4.60760230  9.99999474
   9.57671400  7.37215041 13.12833226
   9.57671400  7.37215041  9.99999474
  11.17283619 10.13671510 13.12833226
  11.17283619 10.13671510  9.99999474
   4.78835700 -6.45062331 13.12833226
   4.78835700 -6.45062331  9.99999474
   6.38446962 -3.68607520 13.12833226
   6.38446962 -3.68607520  9.99999474
   7.98059181 -0.92151051 13.12833226
   7.98059181 -0.92151051  9.99999474
   9.57671400  1.84305419 13.12833226
   9.57671400  1.84305419  9.99999474
  11.17282662  4.60760230 13.12833226
  11.17282662  4.60760230  9.99999474
  12.76894881  7.37216699 13.12833226
  12.76894881  7.37216699  9.99999474
   6.38447919 -9.21518801 13.12833226
   6.38447919 -9.21518801  9.99999474
   7.98059181 -6.45063990 13.12833226
   7.98059181 -6.45063990  9.99999474
   9.57671400 -3.68607520 13.12833226
   9.57671400 -3.68607520  9.99999474
  11.17283619 -0.92151051 13.12833226
  11.17283619 -0.92151051  9.99999474
  12.76894881  1.84303760 13.12833226
  12.76894881  1.84303760  9.99999474
  14.36507100  4.60760230 13.12833226
  14.36507100  4.60760230  9.99999474
   7.98060138-11.97975270 13.12833226
   7.98060138-11.97975270  9.99999474
   9.57671400 -9.21520459 13.12833226
   9.57671400 -9.21520459  9.99999474
  11.17283619 -6.45063990 13.12833226
  11.17283619 -6.45063990  9.99999474
  12.76895838 -3.68607520 13.12833226
  12.76895838 -3.68607520  9.99999474
  14.36507100 -0.92152709 13.12833226
  14.36507100 -0.92152709  9.99999474
  15.96119319  1.84303760 13.12833226
  15.96119319  1.84303760  9.99999474
   9.57671400-14.74430081 13.12833226
   9.57671400-14.74430081  9.99999474
  11.17282662-11.97975270 13.12833226
  11.17282662-11.97975270  9.99999474
  12.76894881 -9.21518801 13.12833226
  12.76894881 -9.21518801  9.99999474
  14.36507100 -6.45062331 13.12833226
  14.36507100 -6.45062331  9.99999474
  15.96118362 -3.68607520 13.12833226
  15.96118362 -3.68607520  9.99999474
  17.55730581 -0.92151051 13.12833226
  17.55730581 -0.92151051  9.99999474
 


--------------------------------------------------------------------------------------------------------


 use serial FFT for orbitals x direction half grid
 k-point  1 :   0.0000 0.0000 0.0000  plane waves:   54663

 maximum and minimum number of plane-waves per node :     54663    54663

 maximum number of plane-waves:     54663
 maximum index in each direction: 
   IXMAX=   29   IYMAX=   25   IZMAX=   35
   IXMIN=    0   IYMIN=  -29   IZMIN=  -35


 serial   3D FFT for wavefunctions
 parallel 3D FFT for charge:
    minimum data exchange during FFTs selected (reduces bandwidth)


 total amount of memory used by VASP MPI-rank0   163585. kBytes
=======================================================================

   base      :      30000. kBytes
   nonlr-proj:      18686. kBytes
   fftplans  :      46368. kBytes
   grid      :      52655. kBytes
   one-center:        839. kBytes
   wavefun   :      15037. kBytes
 
     INWAV:  cpu time    0.0001: real time    0.0003
 Broyden mixing: mesh for mixing (old mesh)
   NGX = 59   NGY = 59   NGZ = 71
  (NGX  =180   NGY  =180   NGZ  =216)
  gives a total of 247151 points

 initial charge density was supplied:
 charge density of overlapping atoms calculated
 number of electron     648.0000000 magnetization 
 keeping initial charge density in first step


--------------------------------------------------------------------------------------------------------


 Maximum index for non-local projection operator         2397
 Maximum index for augmentation-charges         2592 (set IRDMAX)


--------------------------------------------------------------------------------------------------------


 First call to EWALD:  gamma=   0.091
 Maximum number of real-space cells 3x 3x 2
 Maximum number of reciprocal cells 3x 3x 3

    FEWALD:  cpu time    0.0046: real time    0.0047


--------------------------------------- Iteration      1(   1)  ---------------------------------------


    POTLOK:  cpu time    0.2393: real time    0.2792
    SETDIJ:  cpu time    0.1648: real time    0.1652
     EDDAV:  cpu time    4.9659: real time    4.9874
       DOS:  cpu time    0.0005: real time    0.0005
    --------------------------------------------
      LOOP:  cpu time    5.3704: real time    5.4323

 eigenvalue-minimisations  :   864
 total energy-change (2. order) : 0.5620380E+04  (-0.2050951E+05)
 number of electron     648.0000000 magnetization 
 augmentation part      648.0000000 magnetization 

 Free energy of the ion-electron system (eV)
  ---------------------------------------------------
  alpha Z        PSCENC =       522.92717796
  Ewald energy   TEWEN  =    117925.87183802
  -Hartree energ DENC   =   -142813.99993728
  -exchange      EXHF   =         0.00000000
  -V(xc)+E(xc)   XCENC  =     -1307.38805243
  PAW double counting   =     14647.91443135   -11856.26635306
  entropy T*S    EENTRO =        -0.06898683
  eigenvalues    EBANDS =       740.06386733
  atomic energy  EATOM  =     27761.32642719
  Solvation  Ediel_sol  =         0.00000000
  ---------------------------------------------------
  free energy    TOTEN  =      5620.38041224 eV

  energy without entropy =     5620.44939907  energy(sigma->0) =     5620.41490566


--------------------------------------------------------------------------------------------------------




--------------------------------------- Iteration      1(   2)  ---------------------------------------


     EDDAV:  cpu time    6.9351: real time    6.9649
       DOS:  cpu time    0.0002: real time    0.0002
    --------------------------------------------
      LOOP:  cpu time    6.9353: real time    6.9651

 eigenvalue-minimisations  :  1296
 total energy-change (2. order) :-0.5549005E+04  (-0.5377849E+04)
 number of electron     648.0000000 magnetization 
 augmentation part      648.0000000 magnetization 

 Free energy of the ion-electron system (eV)
  ---------------------------------------------------
  alpha Z        PSCENC =       522.92717796
  Ewald energy   TEWEN  =    117925.87183802
  -Hartree energ DENC   =   -142813.99993728
  -exchange      EXHF   =         0.00000000
  -V(xc)+E(xc)   XCENC  =     -1307.38805243
  PAW double counting   =     14647.91443135   -11856.26635306
  entropy T*S    EENTRO =        -0.00000000
  eigenvalues    EBANDS =     -4809.01022569
  atomic energy  EATOM  =     27761.32642719
  Solvation  Ediel_sol  =         0.00000000
  ---------------------------------------------------
  free energy    TOTEN  =        71.37530606 eV

  energy without entropy =       71.37530606  energy(sigma->0) =       71.37530606


--------------------------------------------------------------------------------------------------------




--------------------------------------- Iteration      1(   3)  ---------------------------------------


     EDDAV:  cpu time    5.4945: real time    5.5101
       DOS:  cpu time    0.0002: real time    0.0002
    --------------------------------------------
      LOOP:  cpu time    5.4947: real time    5.5103

 eigenvalue-minimisations  :   984
 total energy-change (2. order) :-0.8771868E+03  (-0.8683814E+03)
 number of electron     648.0000000 magnetization 
 augmentation part      648.0000000 magnetization 

 Free energy of the ion-electron system (eV)
  ---------------------------------------------------
  alpha Z        PSCENC =       522.92717796
  Ewald energy   TEWEN  =    117925.87183802
  -Hartree energ DENC   =   -142813.99993728
  -exchange      EXHF   =         0.00000000
  -V(xc)+E(xc)   XCENC  =     -1307.38805243
  PAW double counting   =     14647.91443135   -11856.26635306
  entropy T*S    EENTRO =        -0.00000000
  eigenvalues    EBANDS =     -5686.19702116
  atomic energy  EATOM  =     27761.32642719
  Solvation  Ediel_sol  =         0.00000000
  ---------------------------------------------------
  free energy    TOTEN  =      -805.81148941 eV

  energy without entropy =     -805.81148941  energy(sigma->0) =     -805.81148941


--------------------------------------------------------------------------------------------------------




--------------------------------------- Iteration      1(   4)  ---------------------------------------


     EDDAV:  cpu time    6.1368: real time    6.1566
       DOS:  cpu time    0.0002: real time    0.0002
    --------------------------------------------
      LOOP:  cpu time    6.1370: real time    6.1568

 eigenvalue-minimisations  :  1128
 total energy-change (2. order) :-0.3562056E+02  (-0.3540402E+02)
 number of electron     648.0000000 magnetization 
 augmentation part      648.0000000 magnetization 

 Free energy of the ion-electron system (eV)
  ---------------------------------------------------
  alpha Z        PSCENC =       522.92717796
  Ewald energy   TEWEN  =    117925.87183802
  -Hartree energ DENC   =   -142813.99993728
  -exchange      EXHF   =         0.00000000
  -V(xc)+E(xc)   XCENC  =     -1307.38805243
  PAW double counting   =     14647.91443135   -11856.26635306
  entropy T*S    EENTRO =        -0.00000000
  eigenvalues    EBANDS =     -5721.81757676
  atomic energy  EATOM  =     27761.32642719
  Solvation  Ediel_sol  =         0.00000000
  ---------------------------------------------------
  free energy    TOTEN  =      -841.43204501 eV

  energy without entropy =     -841.43204501  energy(sigma->0) =     -841.43204501


--------------------------------------------------------------------------------------------------------




--------------------------------------- Iteration      1(   5)  ---------------------------------------


     EDDAV:  cpu time    6.3508: real time    6.3695
       DOS:  cpu time    0.0002: real time    0.0002
    CHARGE:  cpu time    0.5670: real time    0.5686
    MIXING:  cpu time    0.0074: real time    0.0074
    --------------------------------------------
      LOOP:  cpu time    6.9254: real time    6.9457

 eigenvalue-minimisations  :  1176
 total energy-change (2. order) :-0.1085593E+01  (-0.1082041E+01)
 number of electron     647.9999981 magnetization 
 augmentation part      -34.0242037 magnetization 

 Broyden mixing:
  rms(total) = 0.41293E+01    rms(broyden)= 0.41289E+01
  rms(prec ) = 0.45870E+01
  weight for this iteration     100.00

 Free energy of the ion-electron system (eV)
  ---------------------------------------------------
  alpha Z        PSCENC =       522.92717796
  Ewald energy   TEWEN  =    117925.87183802
  -Hartree energ DENC   =   -142813.99993728
  -exchange      EXHF   =         0.00000000
  -V(xc)+E(xc)   XCENC  =     -1307.38805243
  PAW double counting   =     14647.91443135   -11856.26635306
  entropy T*S    EENTRO =        -0.00000000
  eigenvalues    EBANDS =     -5722.90317017
  atomic energy  EATOM  =     27761.32642719
  Solvation  Ediel_sol  =         0.00000000
  ---------------------------------------------------
  free energy    TOTEN  =      -842.51763843 eV

  energy without entropy =     -842.51763843  energy(sigma->0) =     -842.51763843


--------------------------------------------------------------------------------------------------------




--------------------------------------- Iteration      1(   6)  ---------------------------------------


    POTLOK:  cpu time    0.2196: real time    0.2218
    SETDIJ:  cpu time    0.1648: real time    0.1652
     EDDAV:  cpu time    5.9111: real time    5.9261
       DOS:  cpu time    0.0002: real time    0.0002
    CHARGE:  cpu time    0.5724: real time    0.5737
    MIXING:  cpu time    0.0074: real time    0.0074
    --------------------------------------------
      LOOP:  cpu time    6.8755: real time    6.8944

 eigenvalue-minimisations  :  1080
 total energy-change (2. order) : 0.4331350E+02  (-0.3679337E+02)
 number of electron     647.9999981 magnetization 
 augmentation part      -13.5517727 magnetization 

 Broyden mixing:
  rms(total) = 0.16637E+01    rms(broyden)= 0.16632E+01
  rms(prec ) = 0.20482E+01
  weight for this iteration     100.00

 eigenvalues of (default mixing * dielectric matrix)
  average eigenvalue GAMMA=   0.8033
  0.8033

 Free energy of the ion-electron system (eV)
  ---------------------------------------------------
  alpha Z        PSCENC =       522.92717796
  Ewald energy   TEWEN  =    117925.87183802
  -Hartree energ DENC   =   -142758.28587899
  -exchange      EXHF   =         0.00000000
  -V(xc)+E(xc)   XCENC  =     -1275.51605290
  PAW double counting   =     15264.37561190   -12504.73902251
  entropy T*S    EENTRO =        -0.00000000
  eigenvalues    EBANDS =     -5735.16423843
  atomic energy  EATOM  =     27761.32642719
  Solvation  Ediel_sol  =         0.00000000
  ---------------------------------------------------
  free energy    TOTEN  =      -799.20413776 eV

  energy without entropy =     -799.20413776  energy(sigma->0) =     -799.20413776


--------------------------------------------------------------------------------------------------------




--------------------------------------- Iteration      1(   7)  ---------------------------------------


    POTLOK:  cpu time    0.2128: real time    0.2135
    SETDIJ:  cpu time    0.1645: real time    0.1648
     EDDAV:  cpu time    5.9112: real time    5.9266
       DOS:  cpu time    0.0002: real time    0.0002
    CHARGE:  cpu time    0.5739: real time    0.5753
    MIXING:  cpu time    0.0107: real time    0.0107
    --------------------------------------------
      LOOP:  cpu time    6.8732: real time    6.8911

 eigenvalue-minimisations  :  1080
 total energy-change (2. order) : 0.1249816E+02  (-0.8154809E+01)
 number of electron     647.9999981 magnetization 
 augmentation part      -21.1620222 magnetization 

 Broyden mixing:
  rms(total) = 0.93248E+00    rms(broyden)= 0.93242E+00
  rms(prec ) = 0.99830E+00
  weight for this iteration     100.00

 eigenvalues of (default mixing * dielectric matrix)
  average eigenvalue GAMMA=   1.3869
  2.1278  0.6460

 Free energy of the ion-electron system (eV)
  ---------------------------------------------------
  alpha Z        PSCENC =       522.92717796
  Ewald energy   TEWEN  =    117925.87183802
  -Hartree energ DENC   =   -142941.54806239
  -exchange      EXHF   =         0.00000000
  -V(xc)+E(xc)   XCENC  =     -1281.61599982
  PAW double counting   =     15880.74356419   -13129.05055889
  entropy T*S    EENTRO =        -0.00000000
  eigenvalues    EBANDS =     -5525.36035924
  atomic energy  EATOM  =     27761.32642719
  Solvation  Ediel_sol  =         0.00000000
  ---------------------------------------------------
  free energy    TOTEN  =      -786.70597299 eV

  energy without entropy =     -786.70597299  energy(sigma->0) =     -786.70597299


--------------------------------------------------------------------------------------------------------




--------------------------------------- Iteration      1(   8)  ---------------------------------------


    POTLOK:  cpu time    0.2130: real time    0.2146
    SETDIJ:  cpu time    0.1636: real time    0.1641
     EDDAV:  cpu time    5.6022: real time    5.6250
       DOS:  cpu time    0.0002: real time    0.0002
    CHARGE:  cpu time    0.5726: real time    0.5742
    MIXING:  cpu time    0.0082: real time    0.0082
    --------------------------------------------
      LOOP:  cpu time    6.5598: real time    6.5862

 eigenvalue-minimisations  :  1008
 total energy-change (2. order) : 0.2084140E+01  (-0.9296369E+00)
 number of electron     647.9999981 magnetization 
 augmentation part      -20.3822456 magnetization 

 Broyden mixing:
  rms(total) = 0.22862E+00    rms(broyden)= 0.22857E+00
  rms(prec ) = 0.25609E+00
  weight for this iteration     100.00

 eigenvalues of (default mixing * dielectric matrix)
  average eigenvalue GAMMA=   1.2856
  0.6587  1.0620  2.1362

 Free energy of the ion-electron system (eV)
  ---------------------------------------------------
  alpha Z        PSCENC =       522.92717796
  Ewald energy   TEWEN  =    117925.87183802
  -Hartree energ DENC   =   -143045.20649572
  -exchange      EXHF   =         0.00000000
  -V(xc)+E(xc)   XCENC  =     -1272.06430360
  PAW double counting   =     16733.56373688   -14000.69221170
  entropy T*S    EENTRO =        -0.00000000
  eigenvalues    EBANDS =     -5410.34800165
  atomic energy  EATOM  =     27761.32642719
  Solvation  Ediel_sol  =         0.00000000
  ---------------------------------------------------
  free energy    TOTEN  =      -784.62183262 eV

  energy without entropy =     -784.62183262  energy(sigma->0) =     -784.62183262


--------------------------------------------------------------------------------------------------------




--------------------------------------- Iteration      1(   9)  ---------------------------------------


    POTLOK:  cpu time    0.2126: real time    0.2137
    SETDIJ:  cpu time    0.1637: real time    0.1641
     EDDAV:  cpu time    6.4402: real time    6.4642
       DOS:  cpu time    0.0002: real time    0.0002
    CHARGE:  cpu time    0.5694: real time    0.5707
    MIXING:  cpu time    0.0091: real time    0.0091
    --------------------------------------------
      LOOP:  cpu time    7.3952: real time    7.4220

 eigenvalue-minimisations  :  1200
 total energy-change (2. order) : 0.6391377E-01  (-0.1459070E+00)
 number of electron     647.9999981 magnetization 
 augmentation part      -19.6321176 magnetization 

 Broyden mixing:
  rms(total) = 0.14387E+00    rms(broyden)= 0.14384E+00
  rms(prec ) = 0.17120E+00
  weight for this iteration     100.00

 eigenvalues of (default mixing * dielectric matrix)
  average eigenvalue GAMMA=   1.2115
  2.2011  1.3176  0.6636  0.6636

 Free energy of the ion-electron system (eV)
  ---------------------------------------------------
  alpha Z        PSCENC =       522.92717796
  Ewald energy   TEWEN  =    117925.87183802
  -Hartree energ DENC   =   -143082.44235934
  -exchange      EXHF   =         0.00000000
  -V(xc)+E(xc)   XCENC  =     -1269.70119283
  PAW double counting   =     16892.03061710   -14161.83413705
  entropy T*S    EENTRO =        -0.00000000
  eigenvalues    EBANDS =     -5372.73628989
  atomic energy  EATOM  =     27761.32642719
  Solvation  Ediel_sol  =         0.00000000
  ---------------------------------------------------
  free energy    TOTEN  =      -784.55791885 eV

  energy without entropy =     -784.55791885  energy(sigma->0) =     -784.55791885


--------------------------------------------------------------------------------------------------------




--------------------------------------- Iteration      1(  10)  ---------------------------------------


    POTLOK:  cpu time    0.2144: real time    0.2192
    SETDIJ:  cpu time    0.1632: real time    0.1637
     EDDAV:  cpu time    6.2278: real time    6.2438
       DOS:  cpu time    0.0002: real time    0.0002
    CHARGE:  cpu time    0.5744: real time    0.5759
    MIXING:  cpu time    0.0091: real time    0.0091
    --------------------------------------------
      LOOP:  cpu time    7.1890: real time    7.2119

 eigenvalue-minimisations  :  1152
 total energy-change (2. order) : 0.6090551E-01  (-0.2598059E-01)
 number of electron     647.9999981 magnetization 
 augmentation part      -19.7088411 magnetization 

 Broyden mixing:
  rms(total) = 0.88855E-01    rms(broyden)= 0.88843E-01
  rms(prec ) = 0.11094E+00
  weight for this iteration     100.00

 eigenvalues of (default mixing * dielectric matrix)
  average eigenvalue GAMMA=   1.3080
  2.6747  1.8306  0.9263  0.6692  0.4393

 Free energy of the ion-electron system (eV)
  ---------------------------------------------------
  alpha Z        PSCENC =       522.92717796
  Ewald energy   TEWEN  =    117925.87183802
  -Hartree energ DENC   =   -143110.55790246
  -exchange      EXHF   =         0.00000000
  -V(xc)+E(xc)   XCENC  =     -1269.15731862
  PAW double counting   =     16959.75397473   -14230.31380832
  entropy T*S    EENTRO =        -0.00000000
  eigenvalues    EBANDS =     -5344.34740183
  atomic energy  EATOM  =     27761.32642719
  Solvation  Ediel_sol  =         0.00000000
  ---------------------------------------------------
  free energy    TOTEN  =      -784.49701334 eV

  energy without entropy =     -784.49701334  energy(sigma->0) =     -784.49701334


--------------------------------------------------------------------------------------------------------




--------------------------------------- Iteration      1(  11)  ---------------------------------------


    POTLOK:  cpu time    0.2136: real time    0.2163
    SETDIJ:  cpu time    0.1637: real time    0.1641
     EDDAV:  cpu time    6.2708: real time    6.2872
       DOS:  cpu time    0.0002: real time    0.0002
    CHARGE:  cpu time    0.5793: real time    0.5808
    MIXING:  cpu time    0.0090: real time    0.0090
    --------------------------------------------
      LOOP:  cpu time    7.2365: real time    7.2575

 eigenvalue-minimisations  :  1152
 total energy-change (2. order) : 0.5252608E-01  (-0.1738695E-01)
 number of electron     647.9999981 magnetization 
 augmentation part      -19.9598827 magnetization 

 Broyden mixing:
  rms(total) = 0.37614E-01    rms(broyden)= 0.37606E-01
  rms(prec ) = 0.49541E-01
  weight for this iteration     100.00

 eigenvalues of (default mixing * dielectric matrix)
  average eigenvalue GAMMA=   1.2044
  2.4888  1.8029  0.9103  0.9103  0.6860  0.4284

 Free energy of the ion-electron system (eV)
  ---------------------------------------------------
  alpha Z        PSCENC =       522.92717796
  Ewald energy   TEWEN  =    117925.87183802
  -Hartree energ DENC   =   -143160.54502956
  -exchange      EXHF   =         0.00000000
  -V(xc)+E(xc)   XCENC  =     -1268.37546283
  PAW double counting   =     17051.51814627   -14322.97156235
  entropy T*S    EENTRO =        -0.00000000
  eigenvalues    EBANDS =     -5294.19602195
  atomic energy  EATOM  =     27761.32642719
  Solvation  Ediel_sol  =         0.00000000
  ---------------------------------------------------
  free energy    TOTEN  =      -784.44448726 eV

  energy without entropy =     -784.44448726  energy(sigma->0) =     -784.44448726


--------------------------------------------------------------------------------------------------------




--------------------------------------- Iteration      1(  12)  ---------------------------------------


    POTLOK:  cpu time    0.2152: real time    0.2171
    SETDIJ:  cpu time    0.1638: real time    0.1641
     EDDAV:  cpu time    6.2400: real time    6.2570
       DOS:  cpu time    0.0002: real time    0.0002
    CHARGE:  cpu time    0.5658: real time    0.5674
    MIXING:  cpu time    0.0097: real time    0.0097
    --------------------------------------------
      LOOP:  cpu time    7.1946: real time    7.2155

 eigenvalue-minimisations  :  1152
 total energy-change (2. order) : 0.4526500E-02  (-0.1705959E-02)
 number of electron     647.9999981 magnetization 
 augmentation part      -19.8862839 magnetization 

 Broyden mixing:
  rms(total) = 0.21112E-01    rms(broyden)= 0.21110E-01
  rms(prec ) = 0.34469E-01
  weight for this iteration     100.00

 eigenvalues of (default mixing * dielectric matrix)
  average eigenvalue GAMMA=   1.1430
  2.3629  1.7993  1.1504  1.0607  0.6747  0.5274  0.4257

 Free energy of the ion-electron system (eV)
  ---------------------------------------------------
  alpha Z        PSCENC =       522.92717796
  Ewald energy   TEWEN  =    117925.87183802
  -Hartree energ DENC   =   -143168.26444284
  -exchange      EXHF   =         0.00000000
  -V(xc)+E(xc)   XCENC  =     -1268.26653667
  PAW double counting   =     17031.31708615   -14302.47889136
  entropy T*S    EENTRO =        -0.00000000
  eigenvalues    EBANDS =     -5286.87261921
  atomic energy  EATOM  =     27761.32642719
  Solvation  Ediel_sol  =         0.00000000
  ---------------------------------------------------
  free energy    TOTEN  =      -784.43996076 eV

  energy without entropy =     -784.43996076  energy(sigma->0) =     -784.43996076


--------------------------------------------------------------------------------------------------------




--------------------------------------- Iteration      1(  13)  ---------------------------------------


    POTLOK:  cpu time    0.2149: real time    0.2157
    SETDIJ:  cpu time    0.1630: real time    0.1634
     EDDAV:  cpu time    6.1256: real time    6.1421
       DOS:  cpu time    0.0002: real time    0.0002
    CHARGE:  cpu time    0.5744: real time    0.5760
    MIXING:  cpu time    0.0101: real time    0.0101
    --------------------------------------------
      LOOP:  cpu time    7.0882: real time    7.1074

 eigenvalue-minimisations  :  1128
 total energy-change (2. order) : 0.2961364E-02  (-0.8630820E-03)
 number of electron     647.9999981 magnetization 
 augmentation part      -19.8218548 magnetization 

 Broyden mixing:
  rms(total) = 0.15032E-01    rms(broyden)= 0.15030E-01
  rms(prec ) = 0.27907E-01
  weight for this iteration     100.00

 eigenvalues of (default mixing * dielectric matrix)
  average eigenvalue GAMMA=   1.2827
  2.5608  2.5608  1.3760  1.3760  0.8075  0.6900  0.4211  0.4696

 Free energy of the ion-electron system (eV)
  ---------------------------------------------------
  alpha Z        PSCENC =       522.92717796
  Ewald energy   TEWEN  =    117925.87183802
  -Hartree energ DENC   =   -143181.12066794
  -exchange      EXHF   =         0.00000000
  -V(xc)+E(xc)   XCENC  =     -1268.12250671
  PAW double counting   =     17016.86415483   -14287.79205537
  entropy T*S    EENTRO =        -0.00000000
  eigenvalues    EBANDS =     -5274.39136737
  atomic energy  EATOM  =     27761.32642719
  Solvation  Ediel_sol  =         0.00000000
  ---------------------------------------------------
  free energy    TOTEN  =      -784.43699939 eV

  energy without entropy =     -784.43699939  energy(sigma->0) =     -784.43699939


--------------------------------------------------------------------------------------------------------




--------------------------------------- Iteration      1(  14)  ---------------------------------------


    POTLOK:  cpu time    0.2146: real time    0.2152
    SETDIJ:  cpu time    0.1637: real time    0.1641
     EDDAV:  cpu time    5.3852: real time    5.4073
       DOS:  cpu time    0.0002: real time    0.0002
    CHARGE:  cpu time    0.5771: real time    0.5785
    MIXING:  cpu time    0.0107: real time    0.0107
    --------------------------------------------
      LOOP:  cpu time    6.3515: real time    6.3760

 eigenvalue-minimisations  :   960
 total energy-change (2. order) : 0.5580682E-02  (-0.1370971E-02)
 number of electron     647.9999981 magnetization 
 augmentation part      -19.8282329 magnetization 

 Broyden mixing:
  rms(total) = 0.10690E-01    rms(broyden)= 0.10689E-01
  rms(prec ) = 0.16401E-01
  weight for this iteration     100.00

 eigenvalues of (default mixing * dielectric matrix)
  average eigenvalue GAMMA=   1.2946
  3.2436  2.5231  1.4534  1.4534  0.8028  0.6982  0.5991  0.4200  0.4578

 Free energy of the ion-electron system (eV)
  ---------------------------------------------------
  alpha Z        PSCENC =       522.92717796
  Ewald energy   TEWEN  =    117925.87183802
  -Hartree energ DENC   =   -143222.22116869
  -exchange      EXHF   =         0.00000000
  -V(xc)+E(xc)   XCENC  =     -1267.73782939
  PAW double counting   =     17009.25297910   -14279.93028082
  entropy T*S    EENTRO =        -0.00000000
  eigenvalues    EBANDS =     -5233.92056208
  atomic energy  EATOM  =     27761.32642719
  Solvation  Ediel_sol  =         0.00000000
  ---------------------------------------------------
  free energy    TOTEN  =      -784.43141871 eV

  energy without entropy =     -784.43141871  energy(sigma->0) =     -784.43141871


--------------------------------------------------------------------------------------------------------




--------------------------------------- Iteration      1(  15)  ---------------------------------------


    POTLOK:  cpu time    0.2150: real time    0.2158
    SETDIJ:  cpu time    0.1633: real time    0.1637
     EDDAV:  cpu time    6.1225: real time    6.1383
       DOS:  cpu time    0.0002: real time    0.0002
    CHARGE:  cpu time    0.5680: real time    0.5784
    MIXING:  cpu time    0.0105: real time    0.0106
    --------------------------------------------
      LOOP:  cpu time    7.0794: real time    7.1070

 eigenvalue-minimisations  :  1128
 total energy-change (2. order) :-0.2312058E-02  (-0.2798204E-03)
 number of electron     647.9999981 magnetization 
 augmentation part      -19.8463479 magnetization 

 Broyden mixing:
  rms(total) = 0.68181E-02    rms(broyden)= 0.68171E-02
  rms(prec ) = 0.10395E-01
  weight for this iteration     100.00

 eigenvalues of (default mixing * dielectric matrix)
  average eigenvalue GAMMA=   1.3659
  3.6039  2.4894  1.7943  1.7943  0.9923  0.8958  0.6859  0.5270  0.4202  0.4556

 Free energy of the ion-electron system (eV)
  ---------------------------------------------------
  alpha Z        PSCENC =       522.92717796
  Ewald energy   TEWEN  =    117925.87183802
  -Hartree energ DENC   =   -143235.88828216
  -exchange      EXHF   =         0.00000000
  -V(xc)+E(xc)   XCENC  =     -1267.63750635
  PAW double counting   =     17007.93836542   -14278.58720646
  entropy T*S    EENTRO =        -0.00000000
  eigenvalues    EBANDS =     -5220.38454439
  atomic energy  EATOM  =     27761.32642719
  Solvation  Ediel_sol  =         0.00000000
  ---------------------------------------------------
  free energy    TOTEN  =      -784.43373077 eV

  energy without entropy =     -784.43373077  energy(sigma->0) =     -784.43373077


--------------------------------------------------------------------------------------------------------




--------------------------------------- Iteration      1(  16)  ---------------------------------------


    POTLOK:  cpu time    0.2161: real time    0.2169
    SETDIJ:  cpu time    0.1641: real time    0.1645
     EDDAV:  cpu time    5.3572: real time    5.3709
       DOS:  cpu time    0.0002: real time    0.0002
    CHARGE:  cpu time    0.5777: real time    0.5793
    MIXING:  cpu time    0.0109: real time    0.0110
    --------------------------------------------
      LOOP:  cpu time    6.3264: real time    6.3427

 eigenvalue-minimisations  :   960
 total energy-change (2. order) :-0.7448811E-02  (-0.6203272E-04)
 number of electron     647.9999981 magnetization 
 augmentation part      -19.8437143 magnetization 

 Broyden mixing:
  rms(total) = 0.37396E-02    rms(broyden)= 0.37392E-02
  rms(prec ) = 0.60802E-02
  weight for this iteration     100.00

 eigenvalues of (default mixing * dielectric matrix)
  average eigenvalue GAMMA=   1.4702
  4.5482  2.6601  2.4703  1.5168  1.2510  0.8347  0.8023  0.6872  0.5253  0.4201
  0.4566

 Free energy of the ion-electron system (eV)
  ---------------------------------------------------
  alpha Z        PSCENC =       522.92717796
  Ewald energy   TEWEN  =    117925.87183802
  -Hartree energ DENC   =   -143245.79512739
  -exchange      EXHF   =         0.00000000
  -V(xc)+E(xc)   XCENC  =     -1267.59715477
  PAW double counting   =     17005.43515337   -14276.14312421
  entropy T*S    EENTRO =        -0.00000000
  eigenvalues    EBANDS =     -5210.46636975
  atomic energy  EATOM  =     27761.32642719
  Solvation  Ediel_sol  =         0.00000000
  ---------------------------------------------------
  free energy    TOTEN  =      -784.44117958 eV

  energy without entropy =     -784.44117958  energy(sigma->0) =     -784.44117958


--------------------------------------------------------------------------------------------------------




--------------------------------------- Iteration      1(  17)  ---------------------------------------


    POTLOK:  cpu time    0.2174: real time    0.2194
    SETDIJ:  cpu time    0.1641: real time    0.1645
     EDDAV:  cpu time    5.4607: real time    5.4750
       DOS:  cpu time    0.0002: real time    0.0002
    CHARGE:  cpu time    0.5770: real time    0.5783
    MIXING:  cpu time    0.0114: real time    0.0114
    --------------------------------------------
      LOOP:  cpu time    6.4307: real time    6.4488

 eigenvalue-minimisations  :   984
 total energy-change (2. order) :-0.4555568E-02  (-0.4105111E-04)
 number of electron     647.9999981 magnetization 
 augmentation part      -19.8408366 magnetization 

 Broyden mixing:
  rms(total) = 0.33337E-02    rms(broyden)= 0.33331E-02
  rms(prec ) = 0.46469E-02
  weight for this iteration     100.00

 eigenvalues of (default mixing * dielectric matrix)
  average eigenvalue GAMMA=   1.4964
  5.4249  2.8555  2.4503  1.4475  1.4475  0.8723  0.8723  0.6871  0.4202  0.4502
  0.5225  0.5064

 Free energy of the ion-electron system (eV)
  ---------------------------------------------------
  alpha Z        PSCENC =       522.92717796
  Ewald energy   TEWEN  =    117925.87183802
  -Hartree energ DENC   =   -143252.08933204
  -exchange      EXHF   =         0.00000000
  -V(xc)+E(xc)   XCENC  =     -1267.57952164
  PAW double counting   =     17004.16955954   -14274.90460576
  entropy T*S    EENTRO =        -0.00000000
  eigenvalues    EBANDS =     -5204.16727840
  atomic energy  EATOM  =     27761.32642719
  Solvation  Ediel_sol  =         0.00000000
  ---------------------------------------------------
  free energy    TOTEN  =      -784.44573515 eV

  energy without entropy =     -784.44573515  energy(sigma->0) =     -784.44573515


--------------------------------------------------------------------------------------------------------




--------------------------------------- Iteration      1(  18)  ---------------------------------------


    POTLOK:  cpu time    0.2170: real time    0.2176
    SETDIJ:  cpu time    0.1648: real time    0.1654
     EDDAV:  cpu time    5.1551: real time    5.1683
       DOS:  cpu time    0.0002: real time    0.0002
    CHARGE:  cpu time    0.5770: real time    0.5784
    MIXING:  cpu time    0.0119: real time    0.0119
    --------------------------------------------
      LOOP:  cpu time    6.1259: real time    6.1417

 eigenvalue-minimisations  :   912
 total energy-change (2. order) :-0.2181921E-02  (-0.1480299E-04)
 number of electron     647.9999981 magnetization 
 augmentation part      -19.8416818 magnetization 

 Broyden mixing:
  rms(total) = 0.21413E-02    rms(broyden)= 0.21408E-02
  rms(prec ) = 0.29549E-02
  weight for this iteration     100.00

 eigenvalues of (default mixing * dielectric matrix)
  average eigenvalue GAMMA=   1.5919
  6.2421  3.0495  2.3777  1.8614  1.6540  1.0692  1.0161  0.8656  0.6871  0.5346
  0.4201  0.4676  0.4500

 Free energy of the ion-electron system (eV)
  ---------------------------------------------------
  alpha Z        PSCENC =       522.92717796
  Ewald energy   TEWEN  =    117925.87183802
  -Hartree energ DENC   =   -143255.06976070
  -exchange      EXHF   =         0.00000000
  -V(xc)+E(xc)   XCENC  =     -1267.57512598
  PAW double counting   =     17004.14491977   -14274.88435861
  entropy T*S    EENTRO =        -0.00000000
  eigenvalues    EBANDS =     -5201.18903471
  atomic energy  EATOM  =     27761.32642719
  Solvation  Ediel_sol  =         0.00000000
  ---------------------------------------------------
  free energy    TOTEN  =      -784.44791707 eV

  energy without entropy =     -784.44791707  energy(sigma->0) =     -784.44791707


--------------------------------------------------------------------------------------------------------




--------------------------------------- Iteration      1(  19)  ---------------------------------------


    POTLOK:  cpu time    0.2177: real time    0.2230
    SETDIJ:  cpu time    0.1644: real time    0.1648
     EDDAV:  cpu time    5.2568: real time    5.2706
       DOS:  cpu time    0.0002: real time    0.0002
    CHARGE:  cpu time    0.5780: real time    0.5795
    MIXING:  cpu time    0.0123: real time    0.0123
    --------------------------------------------
      LOOP:  cpu time    6.2294: real time    6.2504

 eigenvalue-minimisations  :   936
 total energy-change (2. order) :-0.3193975E-02  (-0.1168409E-04)
 number of electron     647.9999981 magnetization 
 augmentation part      -19.8445404 magnetization 

 Broyden mixing:
  rms(total) = 0.13217E-02    rms(broyden)= 0.13211E-02
  rms(prec ) = 0.18067E-02
  weight for this iteration     100.00

 eigenvalues of (default mixing * dielectric matrix)
  average eigenvalue GAMMA=   1.5827
  6.6954  3.2093  2.2926  2.2926  1.5422  1.1862  0.9542  0.8746  0.6873  0.5434
  0.5434  0.4199  0.4581  0.4581

 Free energy of the ion-electron system (eV)
  ---------------------------------------------------
  alpha Z        PSCENC =       522.92717796
  Ewald energy   TEWEN  =    117925.87183802
  -Hartree energ DENC   =   -143257.97489290
  -exchange      EXHF   =         0.00000000
  -V(xc)+E(xc)   XCENC  =     -1267.57625642
  PAW double counting   =     17005.35890671   -14276.09722337
  entropy T*S    EENTRO =        -0.00000000
  eigenvalues    EBANDS =     -5198.28708823
  atomic energy  EATOM  =     27761.32642719
  Solvation  Ediel_sol  =         0.00000000
  ---------------------------------------------------
  free energy    TOTEN  =      -784.45111104 eV

  energy without entropy =     -784.45111104  energy(sigma->0) =     -784.45111104


--------------------------------------------------------------------------------------------------------




--------------------------------------- Iteration      1(  20)  ---------------------------------------


    POTLOK:  cpu time    0.2178: real time    0.2198
    SETDIJ:  cpu time    0.1642: real time    0.1646
     EDDAV:  cpu time    4.4383: real time    4.4508
       DOS:  cpu time    0.0002: real time    0.0002
    CHARGE:  cpu time    0.5725: real time    0.5740
    MIXING:  cpu time    0.0137: real time    0.0137
    --------------------------------------------
      LOOP:  cpu time    5.4066: real time    5.4230

 eigenvalue-minimisations  :   744
 total energy-change (2. order) :-0.9223688E-03  (-0.2782602E-05)
 number of electron     647.9999981 magnetization 
 augmentation part      -19.8442307 magnetization 

 Broyden mixing:
  rms(total) = 0.82715E-03    rms(broyden)= 0.82634E-03
  rms(prec ) = 0.11524E-02
  weight for this iteration     100.00

 eigenvalues of (default mixing * dielectric matrix)
  average eigenvalue GAMMA=   1.6214
  7.2111  3.4676  2.5054  2.1775  1.4557  1.4112  1.1962  1.0139  0.8687  0.6870
  0.5376  0.4203  0.4657  0.4657  0.4381

 Free energy of the ion-electron system (eV)
  ---------------------------------------------------
  alpha Z        PSCENC =       522.92717796
  Ewald energy   TEWEN  =    117925.87183802
  -Hartree energ DENC   =   -143258.57458747
  -exchange      EXHF   =         0.00000000
  -V(xc)+E(xc)   XCENC  =     -1267.57664368
  PAW double counting   =     17005.68967932   -14276.42833398
  entropy T*S    EENTRO =        -0.00000000
  eigenvalues    EBANDS =     -5197.68759076
  atomic energy  EATOM  =     27761.32642719
  Solvation  Ediel_sol  =         0.00000000
  ---------------------------------------------------
  free energy    TOTEN  =      -784.45203341 eV

  energy without entropy =     -784.45203341  energy(sigma->0) =     -784.45203341


--------------------------------------------------------------------------------------------------------




--------------------------------------- Iteration      1(  21)  ---------------------------------------


    POTLOK:  cpu time    0.2177: real time    0.2185
    SETDIJ:  cpu time    0.1636: real time    0.1640
     EDDAV:  cpu time    4.1449: real time    4.1697
       DOS:  cpu time    0.0002: real time    0.0002
    CHARGE:  cpu time    0.5728: real time    0.5741
    MIXING:  cpu time    0.0193: real time    0.0193
    --------------------------------------------
      LOOP:  cpu time    5.1185: real time    5.1459

 eigenvalue-minimisations  :   672
 total energy-change (2. order) :-0.1092529E-02  (-0.1948444E-05)
 number of electron     647.9999981 magnetization 
 augmentation part      -19.8426753 magnetization 

 Broyden mixing:
  rms(total) = 0.45224E-03    rms(broyden)= 0.45094E-03
  rms(prec ) = 0.61236E-03
  weight for this iteration     100.00

 eigenvalues of (default mixing * dielectric matrix)
  average eigenvalue GAMMA=   1.6837
  7.7204  3.9167  2.6626  2.4299  1.5969  1.5969  1.1222  1.1222  0.8764  0.8764
  0.6868  0.5398  0.4785  0.4202  0.4569  0.4362

 Free energy of the ion-electron system (eV)
  ---------------------------------------------------
  alpha Z        PSCENC =       522.92717796
  Ewald energy   TEWEN  =    117925.87183802
  -Hartree energ DENC   =   -143258.94982539
  -exchange      EXHF   =         0.00000000
  -V(xc)+E(xc)   XCENC  =     -1267.57655961
  PAW double counting   =     17005.88455913   -14276.62331176
  entropy T*S    EENTRO =        -0.00000000
  eigenvalues    EBANDS =     -5197.31343148
  atomic energy  EATOM  =     27761.32642719
  Solvation  Ediel_sol  =         0.00000000
  ---------------------------------------------------
  free energy    TOTEN  =      -784.45312594 eV

  energy without entropy =     -784.45312594  energy(sigma->0) =     -784.45312594


--------------------------------------------------------------------------------------------------------




--------------------------------------- Iteration      1(  22)  ---------------------------------------


    POTLOK:  cpu time    0.2171: real time    0.2193
    SETDIJ:  cpu time    0.1641: real time    0.1647
     EDDAV:  cpu time    4.2239: real time    4.2344
       DOS:  cpu time    0.0002: real time    0.0002
    CHARGE:  cpu time    0.5774: real time    0.5787
    MIXING:  cpu time    0.0141: real time    0.0141
    --------------------------------------------
      LOOP:  cpu time    5.1967: real time    5.2113

 eigenvalue-minimisations  :   696
 total energy-change (2. order) :-0.4659072E-03  (-0.1118412E-05)
 number of electron     647.9999981 magnetization 
 augmentation part      -19.8428786 magnetization 

 Broyden mixing:
  rms(total) = 0.34644E-03    rms(broyden)= 0.34488E-03
  rms(prec ) = 0.41769E-03
  weight for this iteration     100.00

 eigenvalues of (default mixing * dielectric matrix)
  average eigenvalue GAMMA=   1.6740
  7.9127  4.1934  2.7467  2.4464  1.6478  1.6478  1.1379  1.1379  0.8890  0.8890
  0.7930  0.6872  0.5382  0.4201  0.4802  0.4540  0.4377

 Free energy of the ion-electron system (eV)
  ---------------------------------------------------
  alpha Z        PSCENC =       522.92717796
  Ewald energy   TEWEN  =    117925.87183802
  -Hartree energ DENC   =   -143259.25804610
  -exchange      EXHF   =         0.00000000
  -V(xc)+E(xc)   XCENC  =     -1267.57738235
  PAW double counting   =     17005.84098059   -14276.57511312
  entropy T*S    EENTRO =        -0.00000000
  eigenvalues    EBANDS =     -5197.00947404
  atomic energy  EATOM  =     27761.32642719
  Solvation  Ediel_sol  =         0.00000000
  ---------------------------------------------------
  free energy    TOTEN  =      -784.45359185 eV

  energy without entropy =     -784.45359185  energy(sigma->0) =     -784.45359185


--------------------------------------------------------------------------------------------------------




--------------------------------------- Iteration      1(  23)  ---------------------------------------


    POTLOK:  cpu time    0.2179: real time    0.2186
    SETDIJ:  cpu time    0.1636: real time    0.1640
     EDDAV:  cpu time    3.9088: real time    3.9253
       DOS:  cpu time    0.0002: real time    0.0002
    CHARGE:  cpu time    0.5777: real time    0.5791
    MIXING:  cpu time    0.0157: real time    0.0157
    --------------------------------------------
      LOOP:  cpu time    4.8838: real time    4.9028

 eigenvalue-minimisations  :   624
 total energy-change (2. order) :-0.1470532E-03  (-0.1993851E-06)
 number of electron     647.9999981 magnetization 
 augmentation part      -19.8430129 magnetization 

 Broyden mixing:
  rms(total) = 0.24282E-03    rms(broyden)= 0.24062E-03
  rms(prec ) = 0.28844E-03
  weight for this iteration     100.00

 eigenvalues of (default mixing * dielectric matrix)
  average eigenvalue GAMMA=   1.7037
  8.1408  4.6331  2.8170  2.4442  1.8007  1.8007  1.3145  1.3145  0.9856  0.9856
  0.8583  0.6870  0.5536  0.5395  0.4201  0.4785  0.4558  0.4366

 Free energy of the ion-electron system (eV)
  ---------------------------------------------------
  alpha Z        PSCENC =       522.92717796
  Ewald energy   TEWEN  =    117925.87183802
  -Hartree energ DENC   =   -143259.29307443
  -exchange      EXHF   =         0.00000000
  -V(xc)+E(xc)   XCENC  =     -1267.57799498
  PAW double counting   =     17005.77354179   -14276.50660502
  entropy T*S    EENTRO =        -0.00000000
  eigenvalues    EBANDS =     -5196.97504943
  atomic energy  EATOM  =     27761.32642719
  Solvation  Ediel_sol  =         0.00000000
  ---------------------------------------------------
  free energy    TOTEN  =      -784.45373890 eV

  energy without entropy =     -784.45373890  energy(sigma->0) =     -784.45373890


--------------------------------------------------------------------------------------------------------




--------------------------------------- Iteration      1(  24)  ---------------------------------------


    POTLOK:  cpu time    0.2194: real time    0.2202
    SETDIJ:  cpu time    0.1636: real time    0.1639
     EDDAV:  cpu time    4.0205: real time    4.0308
       DOS:  cpu time    0.0002: real time    0.0002
    CHARGE:  cpu time    0.5766: real time    0.5780
    MIXING:  cpu time    0.0154: real time    0.0154
    --------------------------------------------
      LOOP:  cpu time    4.9956: real time    5.0084

 eigenvalue-minimisations  :   648
 total energy-change (2. order) :-0.1430423E-03  (-0.3501024E-06)
 number of electron     647.9999981 magnetization 
 augmentation part      -19.8430624 magnetization 

 Broyden mixing:
  rms(total) = 0.10862E-03    rms(broyden)= 0.10364E-03
  rms(prec ) = 0.13069E-03
  weight for this iteration     100.00

 eigenvalues of (default mixing * dielectric matrix)
  average eigenvalue GAMMA=   1.6934
  8.2630  4.9144  2.9067  2.4792  2.2377  1.5691  1.2596  1.2596  1.1298  0.9679
  0.8303  0.8303  0.6866  0.5363  0.4201  0.4365  0.4558  0.4779  0.5133

 Free energy of the ion-electron system (eV)
  ---------------------------------------------------
  alpha Z        PSCENC =       522.92717796
  Ewald energy   TEWEN  =    117925.87183802
  -Hartree energ DENC   =   -143259.27264381
  -exchange      EXHF   =         0.00000000
  -V(xc)+E(xc)   XCENC  =     -1267.57858962
  PAW double counting   =     17005.65428293   -14276.38705474
  entropy T*S    EENTRO =        -0.00000000
  eigenvalues    EBANDS =     -5196.99531988
  atomic energy  EATOM  =     27761.32642719
  Solvation  Ediel_sol  =         0.00000000
  ---------------------------------------------------
  free energy    TOTEN  =      -784.45388194 eV

  energy without entropy =     -784.45388194  energy(sigma->0) =     -784.45388194


--------------------------------------------------------------------------------------------------------




--------------------------------------- Iteration      1(  25)  ---------------------------------------


    POTLOK:  cpu time    0.2181: real time    0.2190
    SETDIJ:  cpu time    0.1637: real time    0.1641
     EDDAV:  cpu time    3.7031: real time    3.7129
       DOS:  cpu time    0.0002: real time    0.0002
    CHARGE:  cpu time    0.5781: real time    0.5797
    MIXING:  cpu time    0.0172: real time    0.0172
    --------------------------------------------
      LOOP:  cpu time    4.6803: real time    4.6930

 eigenvalue-minimisations  :   576
 total energy-change (2. order) :-0.4481959E-04  (-0.9896137E-07)
 number of electron     647.9999981 magnetization 
 augmentation part      -19.8430061 magnetization 

 Broyden mixing:
  rms(total) = 0.76850E-04    rms(broyden)= 0.69664E-04
  rms(prec ) = 0.85019E-04
  weight for this iteration     100.00

 eigenvalues of (default mixing * dielectric matrix)
  average eigenvalue GAMMA=   1.6817
  8.3179  5.0903  3.0154  2.5735  2.2825  1.5105  1.5105  1.1874  1.1874  1.0246
  0.8975  0.8975  0.6863  0.6355  0.5399  0.4201  0.4366  0.4546  0.4755  0.4897

[...]
   -.759E+01 0.496E+01 -.555E+03   0.756E+01 -.483E+01 0.560E+03   0.255E+00 -.463E+00 -.505E+01   -.435E-02 0.392E-02 0.355E-02
   0.116E+01 0.169E+00 0.573E+03   -.140E+01 -.242E+00 -.578E+03   0.356E+00 0.498E+00 0.553E+01   0.168E-02 -.616E-02 -.183E-02
   -.103E+01 -.754E+01 -.533E+03   0.893E+00 0.775E+01 0.538E+03   -.406E-01 0.257E+00 -.492E+01   -.706E-02 0.170E-02 0.944E-02
   0.407E+01 -.914E+01 0.588E+03   -.424E+01 0.917E+01 -.592E+03   -.208E+00 0.776E+00 0.629E+01   0.265E-02 0.128E-02 0.569E-03
   -.810E+01 -.110E+02 -.535E+03   0.817E+01 0.112E+02 0.539E+03   0.316E+00 0.707E+00 -.562E+01   -.501E-02 -.451E-02 0.229E-02
   0.128E+01 0.579E+01 0.581E+03   -.143E+01 -.560E+01 -.586E+03   0.213E+00 -.824E+00 0.465E+01   0.833E-03 0.130E-01 -.247E-02
   0.547E+01 -.130E+02 -.533E+03   -.546E+01 0.130E+02 0.537E+03   0.283E+00 0.316E+00 -.395E+01   -.191E-02 -.381E-02 -.499E-02
   -.871E+01 -.905E+01 0.569E+03   0.890E+01 0.911E+01 -.574E+03   -.377E-01 -.342E+00 0.406E+01   -.219E-03 0.790E-02 -.724E-02
   0.384E+01 -.979E+01 -.550E+03   -.407E+01 0.963E+01 0.555E+03   0.387E+00 0.344E+00 -.601E+01   0.476E-02 0.381E-02 -.843E-02
   -.697E+01 -.180E+02 0.542E+03   0.699E+01 0.180E+02 -.547E+03   -.870E-01 0.527E+00 0.608E+01   -.160E-02 0.242E-02 -.636E-02
   0.359E+01 0.107E+02 -.561E+03   -.365E+01 -.108E+02 0.566E+03   -.274E+00 -.108E+00 -.561E+01   -.453E-03 0.381E-02 -.115E-01
   0.114E+02 0.162E+02 0.552E+03   -.116E+02 -.166E+02 -.557E+03   -.104E+01 0.192E-02 0.475E+01   0.225E-02 -.443E-02 0.117E-02
   0.501E+01 0.877E+01 -.581E+03   -.505E+01 -.866E+01 0.585E+03   -.752E-01 -.551E+00 -.627E+01   -.733E-02 -.315E-02 -.127E-01
   -.254E+01 0.107E+02 0.545E+03   0.240E+01 -.106E+02 -.550E+03   0.514E+00 -.209E+00 0.359E+01   -.435E-02 -.300E-02 0.640E-02
   0.840E+01 -.470E+01 -.542E+03   -.847E+01 0.481E+01 0.547E+03   -.412E+00 -.340E+00 -.389E+01   -.212E-02 0.512E-02 -.164E-02
   0.758E+01 0.578E+01 0.571E+03   -.761E+01 -.594E+01 -.576E+03   -.438E+00 0.113E+00 0.504E+01   0.261E-02 -.381E-02 -.774E-02
   0.118E+02 -.118E+02 -.546E+03   -.117E+02 0.116E+02 0.550E+03   -.558E+00 0.244E+00 -.433E+01   -.245E-02 -.420E-02 0.623E-02
   0.497E+01 -.683E+01 0.595E+03   -.474E+01 0.675E+01 -.600E+03   -.948E+00 0.312E+00 0.579E+01   0.221E-02 -.209E-02 -.569E-02
   0.371E+00 -.102E+02 -.571E+03   -.626E+00 0.104E+02 0.576E+03   0.838E+00 0.753E+00 -.507E+01   -.136E-03 -.850E-02 -.575E-02
   -.466E+01 -.944E+01 0.530E+03   0.473E+01 0.945E+01 -.535E+03   0.947E-01 0.105E+01 0.477E+01   0.129E-02 0.971E-04 -.393E-02
   0.953E+01 -.120E+02 -.573E+03   -.986E+01 0.122E+02 0.578E+03   -.134E+00 -.197E+00 -.410E+01   0.913E-02 -.732E-04 -.303E-02
   -.162E+02 -.180E+02 0.564E+03   0.162E+02 0.181E+02 -.568E+03   0.438E+00 0.689E+00 0.460E+01   -.353E-02 0.321E-02 -.742E-02
   0.153E+01 -.198E+02 -.544E+03   -.157E+01 0.201E+02 0.549E+03   0.259E+00 0.250E+00 -.480E+01   0.172E-02 0.167E-03 -.408E-02
   -.778E+01 -.145E+01 0.529E+03   0.759E+01 0.141E+01 -.535E+03   0.931E+00 -.221E+00 0.484E+01   -.272E-02 0.858E-02 -.275E-02
   0.104E+02 0.148E+02 -.538E+03   -.103E+02 -.147E+02 0.543E+03   -.175E+00 -.664E+00 -.556E+01   -.230E-02 0.820E-03 -.963E-02
   0.777E+01 0.251E+02 0.569E+03   -.744E+01 -.250E+02 -.574E+03   -.587E+00 -.117E+01 0.536E+01   0.293E-02 0.461E-03 -.429E-02
   -.355E+01 0.501E+01 -.580E+03   0.351E+01 -.494E+01 0.584E+03   0.794E+00 0.286E+00 -.567E+01   0.923E-04 -.356E-03 -.872E-02
   -.159E+01 0.854E+01 0.540E+03   0.158E+01 -.846E+01 -.544E+03   0.130E+00 0.560E+00 0.371E+01   0.435E-03 -.465E-02 -.913E-02
   0.206E+01 -.126E+01 -.566E+03   -.195E+01 0.109E+01 0.570E+03   -.125E-01 0.459E+00 -.441E+01   0.232E-02 0.164E-02 -.445E-03
   -.804E+01 0.254E+00 0.571E+03   0.839E+01 -.500E+00 -.575E+03   0.145E-02 0.770E+00 0.480E+01   -.571E-03 -.476E-02 -.625E-02
   -.105E+02 0.923E+01 -.543E+03   0.108E+02 -.904E+01 0.548E+03   0.521E+00 -.125E+00 -.497E+01   0.114E-02 0.422E-02 -.182E-02
   -.133E+02 0.167E+02 0.560E+03   0.134E+02 -.164E+02 -.565E+03   0.586E+00 -.101E+01 0.497E+01   -.582E-02 0.235E-02 0.125E-02
   0.344E+01 0.223E+01 -.583E+03   -.385E+01 -.207E+01 0.588E+03   0.179E+00 0.195E+00 -.301E+01   -.657E-03 -.254E-02 -.591E-02
   -.124E+02 0.142E+01 0.553E+03   0.122E+02 -.108E+01 -.557E+03   0.904E+00 -.337E+00 0.270E+01   -.475E-02 0.465E-02 0.100E-01
   0.269E+01 -.105E+02 -.574E+03   -.274E+01 0.107E+02 0.579E+03   0.466E+00 -.576E+00 -.576E+01   0.128E-02 0.367E-03 -.284E-02
   0.194E+02 -.145E+02 0.521E+03   -.192E+02 0.148E+02 -.526E+03   -.117E+01 -.118E+00 0.519E+01   0.235E-02 0.281E-02 -.511E-02
   0.173E+02 -.985E+01 -.552E+03   -.171E+02 0.976E+01 0.556E+03   -.996E+00 0.855E-01 -.447E+01   0.282E-02 -.359E-02 -.914E-02
   0.277E+02 -.831E+01 0.570E+03   -.276E+02 0.799E+01 -.575E+03   -.120E+01 0.744E+00 0.463E+01   0.276E-02 0.356E-02 -.601E-02
   -.178E+01 -.216E+01 -.564E+03   0.180E+01 0.208E+01 0.569E+03   0.213E+00 0.588E+00 -.573E+01   -.117E-02 0.897E-04 -.102E-01
   -.112E+01 0.365E-01 0.532E+03   0.119E+01 0.116E+00 -.537E+03   -.103E+00 0.432E+00 0.466E+01   -.368E-02 -.374E-02 -.954E-02
   0.113E+01 0.138E+02 -.576E+03   -.123E+01 -.138E+02 0.580E+03   -.702E+00 -.606E+00 -.507E+01   0.258E-02 0.262E-03 -.580E-02
   -.186E+02 0.139E+02 0.552E+03   0.184E+02 -.142E+02 -.557E+03   0.102E+01 0.103E+00 0.439E+01   -.102E-01 -.853E-02 -.632E-02
   -.223E+02 0.857E+01 -.538E+03   0.225E+02 -.875E+01 0.543E+03   0.516E+00 0.302E+00 -.372E+01   0.464E-03 -.502E-02 -.429E-02
   -.418E+01 0.891E+01 0.563E+03   0.414E+01 -.914E+01 -.568E+03   -.265E-02 -.215E+00 0.380E+01   -.224E-02 -.729E-02 -.105E-02
   -.669E+01 0.259E+02 -.560E+03   0.647E+01 -.260E+02 0.565E+03   0.502E+00 -.531E+00 -.563E+01   -.762E-03 0.130E-02 -.119E-02
   0.451E+00 0.452E+01 0.568E+03   -.434E+00 -.444E+01 -.572E+03   -.468E+00 0.185E+00 0.612E+01   -.138E-02 0.244E-02 -.160E-03
   -.235E+02 0.755E+01 -.579E+03   0.238E+02 -.756E+01 0.584E+03   0.131E+01 -.268E+00 -.474E+01   0.646E-05 0.344E-02 -.964E-02
   -.205E+01 0.599E+01 0.549E+03   0.192E+01 -.572E+01 -.553E+03   0.126E+01 -.956E+00 0.515E+01   -.229E-02 0.157E-02 -.201E-02
   -.247E+01 0.469E+01 -.581E+03   0.246E+01 -.505E+01 0.586E+03   -.404E+00 -.721E+00 -.502E+01   0.243E-02 -.621E-02 -.458E-02
   0.661E+01 0.345E+00 0.526E+03   -.681E+01 -.876E+00 -.531E+03   -.133E+00 -.371E+00 0.337E+01   -.149E-02 0.607E-02 0.278E-02
   -.853E+01 -.129E+02 -.575E+03   0.863E+01 0.130E+02 0.579E+03   -.230E+00 0.563E+00 -.616E+01   -.386E-02 -.505E-02 -.113E-01
   -.111E+02 -.776E+01 0.570E+03   0.113E+02 0.778E+01 -.575E+03   0.510E+00 -.134E+00 0.566E+01   -.191E-02 0.387E-02 -.312E-02
   -.158E+02 0.731E+01 -.554E+03   0.156E+02 -.756E+01 0.559E+03   0.100E+01 -.618E+00 -.476E+01   -.186E-02 0.590E-02 -.111E-01
   -.103E+02 -.160E+01 0.520E+03   0.997E+01 0.138E+01 -.526E+03   0.821E+00 -.106E+00 0.409E+01   0.187E-02 0.437E-02 -.790E-02
 -----------------------------------------------------------------------------------------------
   0.102E+00 -.622E+00 0.556E+00   0.924E-13 -.262E-12 -.796E-12   -.105E+00 0.599E+00 -.838E-01   -.105E-02 -.157E-02 -.479E+00
 
 
 POSITION                                       TOTAL-FORCE (eV/Angst)
 -----------------------------------------------------------------------------------
      1.53682      0.94697     11.52032         2.038935     -0.299887      1.036777
      3.28867      3.68493     11.63548        -0.143461      1.726797     -0.369022
      4.88684      6.39095     11.48561        -3.411893      1.229966      1.568176
      6.24973      9.20639     11.61917         1.815536      1.268672     -0.165930
      7.89786     11.95901     11.58255        -0.810003     -0.465340     -1.419174
      9.62131     14.64028     11.62759        -0.948958      1.097797     -0.320104
      3.14780     -1.93848     11.47999         1.725414      1.325013      1.269986
      4.86208      0.92325     11.46542         0.294237     -0.877610      2.329631
      6.41773      3.76263     11.57241         0.389978     -0.754575     -0.195162
      7.97027      6.45607     11.51327         1.231325     -0.622960     -1.721926
      9.49541      9.13820     11.41899         0.041792     -0.436895     -0.516671
     11.02163     11.87527     11.44029         2.359785     -0.445733      2.497643
      4.72102     -4.59658     11.52550        -0.353656      0.732247      0.052961
      6.40327     -1.75435     11.57921         0.394513     -1.547079     -0.201534
      8.05360      1.01596     11.57725         0.943971     -1.510335      2.023795
      9.63405      3.67391     11.51026        -0.356160      1.085388      0.962588
     11.24283      6.41357     11.51405        -0.148866      0.852504     -2.265504
     12.77050      9.22792     11.33408        -1.264459     -0.500769      1.086123
      6.35184     -7.29622     11.56787        -0.288457     -2.265883      0.375221
      7.96561     -4.76462     11.67563        -0.621676      0.937256     -1.408059
      9.47210     -1.90438     11.53539         2.204725      0.971108      1.212103
     11.25497      0.89402     11.48911        -1.399520      0.648651      2.983819
     12.78031      3.65012     11.55757        -0.092779     -0.405383      0.160468
     14.31710      6.51471     11.62503         0.175246     -1.787424     -1.870572
      8.03321    -10.10698     11.66536        -2.283757     -1.052309     -0.077292
      9.49931     -7.55734     11.62966         1.483375      2.971060      0.417880
     11.21989     -4.69676     11.64979        -0.859675      1.088172     -0.520010
     12.76622     -1.79912     11.53487        -0.218835     -0.574719      0.711855
     14.46265      0.98228     11.68686        -0.771645     -1.163441      1.033737
     15.83297      3.77180     11.52105         1.465841     -0.347942      0.757014
      9.60877    -12.80447     11.46174        -0.344359      0.404020      1.133935
     11.20319    -10.09006     11.65889         0.050604     -1.574717     -1.340050
     12.84849     -7.40726     11.76074        -1.640464      0.923264      0.090304
     14.27507     -4.49975     11.51957         2.394718      0.006287      2.228332
     16.03446     -1.81087     11.57797        -1.366755     -0.877572      1.656279
     17.60492      1.04561     11.62239        -1.301459      0.156355     -0.839089
      1.68150     -0.95645     13.05692        -0.530193      0.229061      0.564914
      1.59134     -0.97667     10.04309        -0.716644      0.320919     -0.944787
      3.32376      1.82417     13.11081        -0.759984     -0.368033     -0.161694
      3.26175      1.89642     10.11983        -0.715287     -0.213863     -1.789158
      4.91694      4.69744     13.19262        -0.584107     -0.673056     -0.537187
      4.83933      4.65905      9.91073        -0.059556     -0.929963      0.719488
      6.39944      7.32788     13.01350        -0.041505      0.126517      1.651495
      6.31487      7.44984     10.03348         0.797749     -0.293680     -1.341187
      7.96155     10.07668     13.07475        -0.032851     -0.217235     -0.202047
      7.72215     10.12185      9.88764         0.843886     -0.009103      1.297467
      9.51371     12.70942     13.06845         0.391304      0.777630      0.996136
      9.54526     12.80021     10.01748        -1.599889      1.111348     -1.128319
      3.08004     -3.70477     13.14404        -0.057160     -0.597349     -1.304106
      3.00914     -3.72740      9.90460         0.984241     -0.232290      0.352834
      4.84020     -0.92835     13.19553        -0.563428      0.133021     -1.721955
      4.81598     -0.95809      9.90391        -0.037974      0.043874      0.787553
      6.45618      1.86489     13.11216        -0.524916      0.371562     -0.160952
      6.54846      1.90908     10.07485        -1.109110      0.111090     -1.382352
      8.02703      4.67152     13.11571         0.220219     -0.336534     -0.457358
      7.99469      4.56738      9.89707         0.114460      0.419559      0.972619
      9.61070      7.30334     13.02166        -0.183409      0.463429     -0.150058
      9.62654      7.19861      9.77187        -0.368189      0.812484      1.797903
     11.07024      9.94104     13.04231         0.384099      0.871664     -1.232441
     11.05691     10.12559      9.84498         0.063440     -0.615291     -0.054311
      4.63923     -6.45166     12.99064         0.281715      0.328361      0.688969
      4.82362     -6.35289      9.94724         0.144755     -0.275323     -0.695482
      6.31730     -3.70399     13.19145         0.170650      0.187627     -1.170624
      6.42695     -3.74376      9.97257        -0.072327      0.527667      1.349964
      8.02778     -0.85097     13.21459        -0.334835     -0.261674     -1.262920
      8.08111     -0.81884      9.99313        -1.190851     -0.344393      0.071979
      9.67269      1.94423     13.29124        -0.119331     -0.444966     -2.135421
      9.62953      1.85196     10.05673         0.364740     -0.105376     -1.264647
     11.23278      4.62975     13.02524        -0.484732     -0.223652      0.944164
     11.26910      4.55479      9.92564        -0.462821     -0.057885      0.391003
     12.76061      7.48243     13.05140        -0.529481      0.093745      0.039999
     12.90924      7.33620      9.77141        -0.714217      0.232473      1.591562
      6.30104     -9.23449     13.17876         0.583226      0.938522      0.075525
      6.38667     -9.27539     10.11819         0.166906      1.061982     -0.331893
      7.96760     -6.57608     13.19647        -0.456773      0.049851      0.279088
      7.96976     -6.60282     10.00316         0.385798      0.765953      0.323583
      9.54819     -3.79458     13.13261         0.219087      0.527945      0.381416
      9.49011     -3.81836     10.10332         0.735879     -0.253328     -0.225822
     11.13321     -0.88869     13.12094        -0.065539     -0.625808     -1.008361
     11.17993     -0.86753      9.91123        -0.245322     -1.057523      0.549430
     12.71402      1.78585     13.26339         0.750200      0.360748     -1.326102
     12.89455      1.74489     10.09500         0.114024      0.632228     -1.017622
     14.28368      4.62221     13.13696         0.097779      0.289586      0.088457
     14.25595      4.62125      9.94781         0.355203      0.520064      0.487058
      7.88786    -11.99554     13.08752         0.779518      0.070267      0.099609
      7.85177    -11.82333     10.01007         0.768863     -0.710508     -0.153703
      9.61304     -9.31272     13.19343        -0.232241      0.349263      1.344405
      9.54384     -9.30126     10.12521         0.746388      0.008558     -1.593667
     11.10222     -6.49570     13.27533         0.410318     -0.379268     -0.744538
     11.28777     -6.58926     10.16118        -1.001807      0.188471      0.110930
     12.81327     -3.60297     13.14255        -0.838443     -0.009492     -0.139804
     12.76469     -3.68894      9.95669        -1.104951      0.422279      0.152000
     14.38416     -0.97412     13.21719         0.228198      0.515039     -0.973759
     14.44360     -0.88995     10.10592        -0.030678      0.581389     -0.446896
     16.08021      2.03740     13.22572        -0.793725     -0.621808     -0.597473
     15.89577      1.90867     10.04645         0.799100     -0.227894     -0.137809
      9.59955    -14.60336     13.02644         0.648414      0.111035      1.252244
      9.56452    -14.63891     10.02207        -0.052667     -0.453935     -1.288976
     11.17329    -11.93867     13.20813         0.277739     -0.582354     -1.149525
     11.32895    -11.94771      9.90270        -0.451709      0.268933      1.666117
     12.70019     -9.23969     13.26881         1.602725     -0.275825     -0.412403
     12.69169     -9.10221     10.03637         1.131672     -0.687106      0.699192
     14.40100     -6.22405     13.25184        -0.411959     -1.085503     -0.425258
     14.28475     -6.36273     10.16844        -0.336217     -0.896270     -1.426718
     15.97274     -3.71643     13.28970        -0.135389      0.597505     -2.028004
     15.86687     -3.60874      9.90570         0.695336     -0.110667      1.220085
     17.55651     -0.79954     13.12729         0.768054     -0.863678      0.563428
     17.60938     -0.84365     10.16810         0.536744     -0.320048     -1.350479
 -----------------------------------------------------------------------------------
    total drift:                               -0.004629     -0.025050     -0.006673


--------------------------------------------------------------------------------------------------------



  FREE ENERGIE OF THE ION-ELECTRON SYSTEM (eV)
  ---------------------------------------------------
  free  energy   TOTEN  =      -776.45644529 eV

  energy  without entropy=     -776.45644529  energy(sigma->0) =     -776.45644529
 
 d Force =-0.8398954E+00[-0.890E+00,-0.790E+00]  d Energy =-0.8399224E+00 0.270E-04
 d Force = 0.2076761E+02[ 0.207E+02, 0.208E+02]  d Ewald  = 0.2076738E+02 0.232E-03


--------------------------------------------------------------------------------------------------------


    POTLOK:  cpu time    0.3781: real time    0.3790


--------------------------------------------------------------------------------------------------------


 stress matrix after NEB project (eV)
     -6.25967     -0.13687      0.37957
     -0.13687     -5.97328     -0.87663
      0.37957     -0.87663    -21.98803
  FORCES: max atom, RMS     3.951329    1.647460
  FORCE total and by dimension   17.120904    3.411893
  Stress total and by dimension   23.668537   21.988032
           RANDOM_SEED =         354152031             1296                0
   IONSTEP:  cpu time    0.0004: real time    0.0011

  ENERGY OF THE ELECTRON-ION-THERMOSTAT SYSTEM (eV)
  ---------------------------------------------------
% ion-electron   TOTEN  =      -776.456445  see above
  kinetic energy EKIN   =         4.788901
  kin. lattice  EKIN_LAT=         0.000000  (temperature  343.04 K)
  nose potential ES     =        -8.659647
  nose kinetic   EPS    =         0.064451
  ---------------------------------------------------
  total energy   ETOTAL =      -780.262739 eV

  maximum distance moved by ions :      0.13E-02


 mean value of Nose-termostat <S>:    -0.493 mean value of <T> :   310.193
 mean temperature <T/S>/<1/S>  :   300.200

    WAVPRE:  cpu time    0.3873: real time    0.3906
    FEWALD:  cpu time    0.0039: real time    0.0039
    ORTHCH:  cpu time    0.4920: real time    0.4933
 Prediction of Wavefunctions ALPHA= 2.010 BETA=-1.021
    POTLOK:  cpu time    0.3793: real time    0.3804
    EDDIAG:  cpu time    0.9953: real time    0.9981
     LOOP+:  cpu time   41.3005: real time   41.4279
    4ORBIT:  cpu time    0.0000: real time    0.0000

 total amount of memory used by VASP MPI-rank0   193659. kBytes
=======================================================================

   base      :      30000. kBytes
   nonlr-proj:      18686. kBytes
   fftplans  :      46368. kBytes
   grid      :      52655. kBytes
   one-center:        839. kBytes
   wavefun   :      45111. kBytes
 
  
  
 General timing and accounting informations for this job:
 ========================================================
  
                  Total CPU time used (sec):     1438.079
                            User time (sec):     1430.028
                          System time (sec):        8.051
                         Elapsed time (sec):     1442.940
  
                   Maximum memory used (kb):      317012.
                   Average memory used (kb):           0.
  
                          Minor page faults:      1075567
                          Major page faults:            0
                 Voluntary context switches:         2529
