    #         X           Y           Z       CHARGE      MIN DIST   ATOMIC VOL
 --------------------------------------------------------------------------------
    1   10.102766  -16.110477   11.786411    6.384451     1.028229    15.796608
    2    5.143862   -1.018432   11.886184    6.737075     1.065132    17.394462
    3   15.140837   -0.869840   11.629705    6.707481     1.070627    17.114062
    4    8.501398  -13.266040   11.789426    6.748053     1.059648    17.459746
    5   11.618701  -13.277062   11.868889    6.539066     0.981756    16.167978
    6   15.182257  -13.179290   11.801766    6.374582     1.080288    15.516207
    7   21.803859  -13.052913   11.590324    6.920223     1.086547    18.200346
    8   13.301381   -4.120569   11.671423    6.550106     1.024445    16.644230
    9   20.076802   -4.069315   11.452128    6.551287     1.011647    16.542558
   10   20.010690   -9.971258   11.468138    6.749175     1.039989    17.418007
   11    8.422394   -1.007295   11.837805    6.366025     0.996351    15.560087
   12   21.718390   -7.056752   11.463651    6.535338     1.001821    16.346706
   13   15.067206   -7.057126   11.558679    6.386149     1.008014    15.889718
   14    4.878109   -7.107806   11.739949    6.729893     1.005140    17.481151
   15   23.544556  -16.210673   11.616827    6.924309     1.073974    18.106166
   16    6.694688   -3.864540   11.856946    6.716324     0.976512    17.371987
   17   13.432224   -9.859202   11.789473    6.359596     1.005244    15.428448
   18   16.841865   -4.130342   11.494968    6.717987     1.082146    17.304563
   19    6.644542  -10.099124   11.853557   12.641518     1.023201    19.948033
   20    8.461506   -7.047420   11.929117   12.659732     1.095157    19.545626
   21   11.674140   -1.138949   11.722373   12.200988     1.041059    17.166503
   22   18.299918  -13.183815   11.712230   12.198868     1.030468    17.091587
   23   25.045800  -13.259178   11.622109   12.506661     1.044441    18.526766
   24   13.408633  -15.951558   11.869380   12.186399     1.026854    16.925701
   25   16.621800  -10.137707   11.615986   12.042320     1.037748    16.558612
   26    1.682917   -1.033852   11.765353   12.478033     1.047162    18.827501
   27   18.347222   -1.062994   11.658055   12.173824     1.028829    17.047707
   28   16.714884  -16.105158   11.855824   12.032272     1.062911    16.150854
   29   19.988929  -16.267357   11.776922   12.190810     1.049673    17.322757
   30   26.860814  -16.245284   11.627158   12.204260     1.049153    16.829380
   31   10.279116  -10.194089   11.911986   12.364564     1.101496    18.257068
   32   23.341213  -10.070351   11.619024   12.336677     1.038974    17.713391
   33   11.791563   -7.123733   11.826306   12.206853     1.052123    16.739481
   34   18.398442   -7.093871   11.422634   12.335204     1.027502    17.544295
   35    3.344694   -4.098572   11.662799   12.326016     1.036533    17.939210
   36   10.103347   -4.026723   11.814854   12.173418     1.022850    16.822959
   37   21.575646   -8.952530   12.954635    6.602291     1.050486    62.435128
   38   18.424884  -15.104663   13.341691    6.712738     1.069991    93.313429
   39   16.628379  -12.206764   10.164966    6.674887     1.033048    81.931524
   40   25.146829  -15.240251   13.106457    6.692329     1.075844    62.910311
   41   15.077407  -15.054003   10.285844    6.643047     1.075674    88.930834
   42    8.421125   -2.964393   13.269730    6.672244     1.030747    61.097340
   43   10.108047  -12.182416   10.399616    6.679422     0.987925    58.294405
   44   18.380967   -9.044369   12.964335    6.598950     1.010091    82.226907
   45   11.723036  -15.104819   10.304074    6.617647     1.048960    73.078574
   46    5.070780   -9.039192   10.303069    6.777223     1.020779    51.898705
   47    9.964651   -0.081627   10.244009    6.663495     1.052107    74.230142
   48   11.701379   -3.113836   10.176232    6.712904     1.028566    70.147212
   49   11.761408   -9.098580   10.282245    6.659223     1.016601    73.442453
   50   16.764130   -0.034075   10.073888    6.728227     1.031980    68.055981
   51   21.634416   -3.173988   13.064178    6.659764     1.047431    70.229620
   52   16.738640   -0.038050   13.209899    6.679495     1.047602    78.417956
   53   16.808135  -18.158012   10.432196    6.617512     1.001888    60.127710
   54   14.947942   -9.039099   10.144797    6.652685     1.033869    70.145071
   55   10.087963  -18.060759   10.327866    6.731220     1.033412    51.606532
   56   11.893503   -9.038503   13.409351    6.672054     1.018612    88.635450
   57   13.559819   -6.029221   13.141981    6.597050     1.030500    72.531686
   58   15.100681  -14.994140   13.408089    6.647290     1.081724    97.289337
   59   16.766110   -6.061033   12.943978    6.552071     1.039204    82.231188
   60   11.835354   -3.088155   13.289479    6.655785     1.010355    79.768587
   61   10.081185   -0.096211   13.318600    6.678836     1.068471    84.029176
   62   10.069634   -6.059469   10.371571    6.777075     1.043966    55.000234
   63   11.641292  -15.148052   13.383082    6.643387     1.039691    76.591072
   64   20.090058   -6.027403   12.881880    6.527272     0.999271    82.512659
   65   23.392030  -12.098581   13.060602    6.741965     1.057044    54.248932
   66    5.106878   -2.901976   10.386505    6.710410     0.977442    49.350486
   67   28.471939  -15.232722   13.194006    6.634732     1.010296    61.417339
   68   15.121786   -8.893633   13.172645    6.532615     1.068558   100.968790
   69   23.259783   -6.161142   13.067754    6.606806     0.979111    66.699998
   70   16.726028  -12.063750   13.264588    6.633229     1.055028    99.484380
   71   18.336028  -15.223307   10.219305    6.681076     1.046267    93.839983
   72   18.458208   -3.202766   12.973730    6.594421     1.023795    72.257707
   73   18.254825   -9.206276    9.544126    5.972066     1.171596   165.405250
   74    8.542583  -15.141344    9.811402    5.805600     1.171048   165.712406
   75    4.943171   -3.021294   13.728489    5.878477     1.168148   165.442708
   76   16.862765  -18.140226   13.773643    5.824395     1.163503   174.173652
   77    8.497671   -9.094590   10.009756    5.984833     1.207621   146.342298
   78    8.431429   -9.141917   13.794444    6.078522     1.234120   137.799715
   79   23.426579  -12.107553    9.643338    6.013842     1.202888   147.570923
   80   25.147880  -15.234789    9.652523    5.998775     1.198012   148.811321
   81   21.692885  -15.195834    9.882989    5.922876     1.199914   114.159386
   82   13.440204  -18.116432   13.693198    5.963453     1.207278   136.747678
   83   13.274180   -6.065869    9.760359    5.790400     1.184351   166.288191
   84    3.466440   -6.103891    9.689286    5.907951     1.151355   149.301486
   85   21.733919   -9.065973    9.595052    5.943244     1.188575   132.533109
   86   20.144244   -6.007039    9.534661    5.963032     1.166890   131.282009
   87   15.153137   -3.026387   13.306961    5.710890     1.172330   131.099000
   88    8.367302   -2.939943    9.914611    5.779450     1.200491   177.133910
   89   21.855027  -15.064481   13.441253    5.842372     1.178111   137.574967
   90    1.754132   -2.920340    9.680826    5.972098     1.214248   151.962080
   91   13.356685  -12.075495   10.150920    5.696740     1.173720   127.927906
   92   18.434005   -2.977335    9.608234    5.896266     1.145257   154.660132
   93    6.537032   -5.998045   13.608336    5.922018     1.185198   109.754316
   94   26.736404  -12.320363   13.607215    5.939237     1.206500   142.024987
   95   10.186138   -5.995823   13.866895    5.989872     1.218155   207.110007
   96   16.628127   -6.056999    9.570536    5.937845     1.188279   142.500169
   97   13.580777  -18.058502   10.003727    5.866674     1.169273   146.565976
   98   19.991558  -12.153903    9.792612    5.916135     1.155231   119.201243
   99   10.023637  -12.264961   13.794140    5.854584     1.184181   169.290188
  100   24.905843   -9.059300   13.710423    5.946396     1.248812   184.726128
  101   23.498062  -18.128534   13.522540    5.800598     1.168144   154.290903
  102   14.986341   -2.965793    9.908114    5.832949     1.161462    93.804665
  103   30.055037  -18.155485   13.672000    5.874562     1.210867   191.442897
  104   13.433569  -12.020878   13.496901    5.742162     1.181898   125.228784
  105    6.845583  -12.127568    9.929171    5.976229     1.172940   113.417716
  106    6.736115   -5.957108   10.080993    5.884071     1.189775    98.821907
  107   13.335939   -0.033400    9.787470    5.867399     1.187888   144.764778
  108   20.116595  -11.929447   13.387242    5.787088     1.155319   148.895869
 --------------------------------------------------------------------------------
    VACUUM CHARGE:               0.0000
    VACUUM VOLUME:               0.0000
    NUMBER OF ELECTRONS:       792.0000
