 vasp.5.4.4.18Apr17-6-g9f103f2a35 (build Nov 11 2021 15:59:34) complex          
  
 executed on             LinuxIFC date 2022.01.10  02:24:39
 running on   24 total cores
 distrk:  each k-point on   24 cores,    1 groups
 distr:  one band on NCORES_PER_BAND=   1 cores,   24 groups


--------------------------------------------------------------------------------------------------------


 INCAR:
 POTCAR:    PAW_PBE Nb_sv 25May2007               
 POTCAR:    PAW_PBE Re 17Jan2003                  
 POTCAR:    PAW_PBE S 06Sep2000                   
 POTCAR:    PAW_PBE Se 06Sep2000                  

 ----------------------------------------------------------------------------- 
|                                                                             |
|           W    W    AA    RRRRR   N    N  II  N    N   GGGG   !!!           |
|           W    W   A  A   R    R  NN   N  II  NN   N  G    G  !!!           |
|           W    W  A    A  R    R  N N  N  II  N N  N  G       !!!           |
|           W WW W  AAAAAA  RRRRR   N  N N  II  N  N N  G  GGG   !            |
|           WW  WW  A    A  R   R   N   NN  II  N   NN  G    G                |
|           W    W  A    A  R    R  N    N  II  N    N   GGGG   !!!           |
|                                                                             |
|      For optimal performance we recommend to set                            |
|        NCORE= 4 - approx SQRT( number of cores)                             |
|      NCORE specifies how many cores store one orbital (NPAR=cpu/NCORE).     |
|      This setting can  greatly improve the performance of VASP for DFT.     |
|      The default,   NCORE=1            might be grossly inefficient         |
|      on modern multi-core architectures or massively parallel machines.     |
|      Do your own testing !!!!                                               |
|      Unfortunately you need to use the default for GW and RPA calculations. |
|      (for HF NCORE is supported but not extensively tested yet)             |
|                                                                             |
 ----------------------------------------------------------------------------- 

 POTCAR:    PAW_PBE Nb_sv 25May2007               
   VRHFIN =Nb: 4p5s4d                                                           
   LEXCH  = PE                                                                  
   EATOM  =  1555.1913 eV,  114.3033 Ry                                         
                                                                                
   TITEL  = PAW_PBE Nb_sv 25May2007                                             
   LULTRA =        F    use ultrasoft PP ?                                      
   IUNSCR =        1    unscreen: 0-lin 1-nonlin 2-no                           
   RPACOR =    1.800    partial core radius                                     
   POMASS =   92.910; ZVAL   =   13.000    mass and valenz                      
   RCORE  =    2.400    outmost cutoff radius                                   
   RWIGS  =    2.400; RWIGS  =    1.270    wigner-seitz radius (au A)           
   ENMAX  =  293.235; ENMIN  =  219.927 eV                                      
   ICORE  =        3    local potential                                         
   LCOR   =        T    correct aug charges                                     
   LPAW   =        T    paw PP                                                  
   EAUG   =  455.659                                                            
   DEXC   =    0.000                                                            
   RMAX   =    2.456    core radius for proj-oper                               
   RAUG   =    1.300    factor for augmentation sphere                          
   RDEP   =    2.451    radius for radial grids                                 
   RDEPT  =    1.956    core radius for aug-charge                              
                                                                                
   Atomic configuration                                                         
   11 entries                                                                   
     n  l   j            E        occ.                                          
     1  0  0.50    -18805.2457   2.0000                                         
     2  0  0.50     -2630.2869   2.0000                                         
     2  1  1.50     -2348.4046   6.0000                                         
     3  0  0.50      -438.8757   2.0000                                         
     3  1  1.50      -346.7588   6.0000                                         
     3  2  2.50      -196.2560  10.0000                                         
     4  0  0.50       -58.3859   2.0000                                         
     5  0  0.50        -3.9816   1.0000                                         
     4  1  1.50       -34.5141   6.0000                                         
     4  2  2.50        -3.0408   4.0000                                         
     4  3  2.50        -1.3606   0.0000                                         
   Description                                                                  
     l       E           TYP  RCUT    TYP  RCUT                                 
     0    -58.3859094     23  2.200                                             
     0     -3.9816262     23  2.200                                             
     1    -34.5140738     23  2.200                                             
     1     13.6058260     23  2.200                                             
     2     -3.0408010     23  2.200                                             
     2     -0.1283038     23  2.200                                             
     3     -1.3605826     23  2.400                                             
  local pseudopotential read in
  partial core-charges read in
  partial kinetic energy density read in
  atomic valenz-charges read in
  non local Contribution for L=           0  read in
    real space projection operators read in
  non local Contribution for L=           0  read in
    real space projection operators read in
  non local Contribution for L=           1  read in
    real space projection operators read in
  non local Contribution for L=           1  read in
    real space projection operators read in
  non local Contribution for L=           2  read in
    real space projection operators read in
  non local Contribution for L=           2  read in
    real space projection operators read in
    PAW grid and wavefunctions read in
 
   number of l-projection  operators is LMAX  =           6
   number of lm-projection operators is LMMAX =          18
 
 POTCAR:    PAW_PBE Re 17Jan2003                  
   VRHFIN =Re: 5p6s5d                                                           
   LEXCH  = PE                                                                  
   EATOM  =   299.6589 eV,   22.0243 Ry                                         
                                                                                
   TITEL  = PAW_PBE Re 17Jan2003                                                
   LULTRA =        F    use ultrasoft PP ?                                      
   IUNSCR =        1    unscreen: 0-lin 1-nonlin 2-no                           
   RPACOR =    2.250    partial core radius                                     
   POMASS =  186.207; ZVAL   =    7.000    mass and valenz                      
   RCORE  =    2.700    outmost cutoff radius                                   
   RWIGS  =    2.710; RWIGS  =    1.434    wigner-seitz radius (au A)           
   ENMAX  =  226.216; ENMIN  =  169.662 eV                                      
   RCLOC  =    2.105    cutoff for local pot                                    
   LCOR   =        T    correct aug charges                                     
   LPAW   =        T    paw PP                                                  
   EAUG   =  370.280                                                            
   DEXC   =    0.000                                                            
   RMAX   =    2.768    core radius for proj-oper                               
   RAUG   =    1.300    factor for augmentation sphere                          
   RDEP   =    2.719    radius for radial grids                                 
   RDEPT  =    2.204    core radius for aug-charge                              
                                                                                
   Atomic configuration                                                         
   16 entries                                                                   
     n  l   j            E        occ.                                          
     1  0  0.50    -71633.0043   2.0000                                         
     2  0  0.50    -12416.1215   2.0000                                         
     2  1  1.50    -10832.4223   6.0000                                         
     3  0  0.50     -2872.9330   2.0000                                         
     3  1  1.50     -2406.1720   6.0000                                         
     3  2  2.50     -1877.8916  10.0000                                         
     4  0  0.50      -597.8463   2.0000                                         
     4  1  1.50      -444.8000   6.0000                                         
     4  2  2.50      -252.9938  10.0000                                         
     4  3  3.50       -40.1243  14.0000                                         
     5  0  0.50       -83.0609   2.0000                                         
     5  1  1.50       -44.9781   6.0000                                         
     5  2  2.50        -4.0055   6.0000                                         
     6  0  0.50        -5.2962   1.0000                                         
     6  1  1.50        -2.7212   0.0000                                         
     5  3  2.50        -1.3606   0.0000                                         
   Description                                                                  
     l       E           TYP  RCUT    TYP  RCUT                                 
     2     -4.0054887     23  2.500                                             
     2     -2.6236470     23  2.500                                             
     0     -5.2961782     23  2.600                                             
     0      4.1641227     23  2.600                                             
     1     -2.7211652     23  2.700                                             
     1     27.2116520     23  2.700                                             
  local pseudopotential read in
  partial core-charges read in
  partial kinetic energy density read in
  kinetic energy density of atom read in
  atomic valenz-charges read in
  non local Contribution for L=           2  read in
    real space projection operators read in
  non local Contribution for L=           2  read in
    real space projection operators read in
  non local Contribution for L=           0  read in
    real space projection operators read in
  non local Contribution for L=           0  read in
    real space projection operators read in
  non local Contribution for L=           1  read in
    real space projection operators read in
  non local Contribution for L=           1  read in
    real space projection operators read in
    PAW grid and wavefunctions read in
 
   number of l-projection  operators is LMAX  =           6
   number of lm-projection operators is LMMAX =          18
 
 POTCAR:    PAW_PBE S 06Sep2000                   
   VRHFIN =S : s2p4                                                             
   LEXCH  = PE                                                                  
   EATOM  =   276.8230 eV,   20.3459 Ry                                         
                                                                                
   TITEL  = PAW_PBE S 06Sep2000                                                 
   LULTRA =        F    use ultrasoft PP ?                                      
   IUNSCR =        1    unscreen: 0-lin 1-nonlin 2-no                           
   RPACOR =    1.500    partial core radius                                     
   POMASS =   32.066; ZVAL   =    6.000    mass and valenz                      
   RCORE  =    1.900    outmost cutoff radius                                   
   RWIGS  =    2.200; RWIGS  =    1.164    wigner-seitz radius (au A)           
   ENMAX  =  258.689; ENMIN  =  194.016 eV                                      
   ICORE  =        2    local potential                                         
   LCOR   =        T    correct aug charges                                     
   LPAW   =        T    paw PP                                                  
   EAUG   =  335.092                                                            
   DEXC   =    0.000                                                            
   RMAX   =    1.942    core radius for proj-oper                               
   RAUG   =    1.300    factor for augmentation sphere                          
   RDEP   =    1.954    radius for radial grids                                 
   RDEPT  =    1.744    core radius for aug-charge                              
                                                                                
   Atomic configuration                                                         
    6 entries                                                                   
     n  l   j            E        occ.                                          
     1  0  0.50     -2405.8406   2.0000                                         
     2  0  0.50      -211.7007   2.0000                                         
     2  1  1.50      -156.4958   6.0000                                         
     3  0  0.50       -17.2562   2.0000                                         
     3  1  0.50        -7.0085   4.0000                                         
     3  2  1.50        -6.8029   0.0000                                         
   Description                                                                  
     l       E           TYP  RCUT    TYP  RCUT                                 
     0    -17.2561641     23  1.900                                             
     0    -15.8743224     23  1.900                                             
     1     -7.0085400     23  1.900                                             
     1     -2.7779785     23  1.900                                             
     2     -6.8029130     23  1.900                                             
  local pseudopotential read in
  partial core-charges read in
  partial kinetic energy density read in
  atomic valenz-charges read in
  non local Contribution for L=           0  read in
    real space projection operators read in
  non local Contribution for L=           0  read in
    real space projection operators read in
  non local Contribution for L=           1  read in
    real space projection operators read in
  non local Contribution for L=           1  read in
    real space projection operators read in
    PAW grid and wavefunctions read in
 
   number of l-projection  operators is LMAX  =           4
   number of lm-projection operators is LMMAX =           8
 
 POTCAR:    PAW_PBE Se 06Sep2000                  
   VRHFIN =Se: s2p4                                                             
   LEXCH  = PE                                                                  
   EATOM  =   257.1286 eV,   18.8984 Ry                                         
                                                                                
   TITEL  = PAW_PBE Se 06Sep2000                                                
   LULTRA =        F    use ultrasoft PP ?                                      
   IUNSCR =        1    unscreen: 0-lin 1-nonlin 2-no                           
   RPACOR =    1.900    partial core radius                                     
   POMASS =   78.960; ZVAL   =    6.000    mass and valenz                      
   RCORE  =    2.100    outmost cutoff radius                                   
   RWIGS  =    2.200; RWIGS  =    1.164    wigner-seitz radius (au A)           
   ENMAX  =  211.555; ENMIN  =  158.666 eV                                      
   ICORE  =        3    local potential                                         
   LCOR   =        T    correct aug charges                                     
   LPAW   =        T    paw PP                                                  
   EAUG   =  446.842                                                            
   DEXC   =    0.000                                                            
   RMAX   =    2.147    core radius for proj-oper                               
   RAUG   =    1.300    factor for augmentation sphere                          
   RDEP   =    2.177    radius for radial grids                                 
   RDEPT  =    1.928    core radius for aug-charge                              
                                                                                
   Atomic configuration                                                         
   10 entries                                                                   
     n  l   j            E        occ.                                          
     1  0  0.50    -12503.4787   2.0000                                         
     2  0  0.50     -1606.9547   2.0000                                         
     2  1  1.50     -1413.3140   6.0000                                         
     3  0  0.50      -213.4885   2.0000                                         
     3  1  1.50      -152.9538   6.0000                                         
     3  2  2.50       -53.1221  10.0000                                         
     4  0  0.50       -17.2865   2.0000                                         
     4  1  0.50        -6.5110   4.0000                                         
     4  2  2.50        -6.8029   0.0000                                         
     4  3  2.50        -6.8029   0.0000                                         
   Description                                                                  
     l       E           TYP  RCUT    TYP  RCUT                                 
     0    -17.2865377     23  2.100                                             
     0    -15.3094411     23  2.100                                             
     1     -6.5110275     23  2.100                                             
     1     -0.0695192     23  2.100                                             
     2     -6.8029130     23  2.100                                             
     3     -1.3605826      7  2.100                                             
  local pseudopotential read in
  partial core-charges read in
  partial kinetic energy density read in
  atomic valenz-charges read in
  non local Contribution for L=           0  read in
    real space projection operators read in
  non local Contribution for L=           0  read in
    real space projection operators read in
  non local Contribution for L=           1  read in
    real space projection operators read in
  non local Contribution for L=           1  read in
    real space projection operators read in
  non local Contribution for L=           2  read in
    real space projection operators read in
    PAW grid and wavefunctions read in
 
   number of l-projection  operators is LMAX  =           5
   number of lm-projection operators is LMMAX =          13
 
 Optimization of the real space projectors (new method)

 maximal supplied QI-value         = 15.68
 optimisation between [QCUT,QGAM] = [  9.10, 18.19] = [ 23.17, 92.70] Ry 
 Optimized for a Real-space Cutoff    1.90 Angstroem

   l    n(q)    QCUT    max X(q) W(low)/X(q) W(high)/X(q)  e(spline) 
   0     10     9.097    10.201    0.29E-04    0.53E-05    0.51E-07
   0     10     9.097     8.174    0.44E-04    0.11E-04    0.10E-06
   1     10     9.097     3.488    0.28E-05    0.24E-04    0.13E-06
   1     10     9.097     4.917    0.55E-04    0.18E-03    0.30E-06
   2      9     9.097   153.744    0.39E-03    0.27E-03    0.13E-05
   2      9     9.097   126.342    0.39E-03    0.27E-03    0.13E-05
 Optimization of the real space projectors (new method)

 maximal supplied QI-value         = 13.98
 optimisation between [QCUT,QGAM] = [  9.09, 18.32] = [ 23.14, 93.97] Ry 
 Optimized for a Real-space Cutoff    1.74 Angstroem

   l    n(q)    QCUT    max X(q) W(low)/X(q) W(high)/X(q)  e(spline) 
   2      9     9.090   884.633    0.32E-03    0.26E-03    0.62E-06
   2      9     9.090   796.723    0.32E-03    0.26E-03    0.62E-06
   0     10     9.090    65.348    0.59E-04    0.18E-04    0.83E-07
   0     10     9.090    39.642    0.51E-04    0.17E-04    0.77E-07
   1      9     9.090    13.988    0.91E-04    0.74E-04    0.15E-06
   1      9     9.090     8.682    0.72E-04    0.50E-04    0.11E-06
 Optimization of the real space projectors (new method)

 maximal supplied QI-value         = 19.84
 optimisation between [QCUT,QGAM] = [  9.13, 18.25] = [ 23.33, 93.32] Ry 
 Optimized for a Real-space Cutoff    1.29 Angstroem

   l    n(q)    QCUT    max X(q) W(low)/X(q) W(high)/X(q)  e(spline) 
   0      7     9.127   187.594    0.47E-03    0.35E-03    0.94E-07
   0      7     9.127   164.243    0.47E-03    0.35E-03    0.93E-07
   1      6     9.127    67.533    0.17E-03    0.38E-03    0.16E-06
   1      6     9.127    50.729    0.16E-03    0.37E-03    0.16E-06
 Optimization of the real space projectors (new method)

 maximal supplied QI-value         = 17.95
 optimisation between [QCUT,QGAM] = [  9.16, 18.31] = [ 23.47, 93.90] Ry 
 Optimized for a Real-space Cutoff    1.37 Angstroem

   l    n(q)    QCUT    max X(q) W(low)/X(q) W(high)/X(q)  e(spline) 
   0      7     9.156   133.320    0.16E-03    0.22E-03    0.50E-07
   0      7     9.156   111.601    0.16E-03    0.23E-03    0.52E-07
   1      7     9.156    47.222    0.44E-03    0.45E-03    0.16E-06
   1      7     9.156    33.775    0.43E-03    0.45E-03    0.15E-06
   2      6     9.156     3.720    0.19E-03    0.18E-03    0.54E-07
  PAW_PBE Nb_sv 25May2007               :
 energy of atom  1       EATOM=-1555.1913
 kinetic energy error for atom=    0.0519 (will be added to EATOM!!)
  PAW_PBE Re 17Jan2003                  :
 energy of atom  2       EATOM= -299.6589
 kinetic energy error for atom=    0.0166 (will be added to EATOM!!)
  PAW_PBE S 06Sep2000                   :
 energy of atom  3       EATOM= -276.8230
 kinetic energy error for atom=    0.0057 (will be added to EATOM!!)
  PAW_PBE Se 06Sep2000                  :
 energy of atom  4       EATOM= -257.1286
 kinetic energy error for atom=    0.0038 (will be added to EATOM!!)
 
 
 POSCAR: POSCAR                                  
  positions in direct lattice
  No initial velocities read in
 exchange correlation table for  LEXCH =        8
   RHO(1)=    0.500       N(1)  =     2000
   RHO(2)=  100.500       N(2)  =     4000
 


--------------------------------------------------------------------------------------------------------


 ion  position               nearest neighbor table
   1  0.889  0.944  0.500-  37 2.63  38 2.63  45 2.63  79 2.63  78 2.63  44 2.63
   2  0.056  0.111  0.500-  37 2.63  38 2.63  39 2.63  40 2.63  68 2.63 102 2.63
   3  0.889  0.111  0.500-  46 2.63  80 2.63  39 2.63  40 2.63  79 2.63  45 2.63
   4  0.056  0.444  0.500-  41 2.63  42 2.63  73 2.63  74 2.63  69 2.63  70 2.63
   5  0.889  0.444  0.500-  73 2.63  74 2.63  48 2.63  82 2.63  81 2.63  47 2.63
   6  0.056  0.611  0.500-  73 2.63  74 2.63  75 2.63  76 2.63  71 2.63 105 2.63
   7  0.889  0.611  0.500-  49 2.63  83 2.63  76 2.63  75 2.63  82 2.63  48 2.63
   8  0.722  0.944  0.500-  52 2.63  53 2.63  45 2.63  79 2.63  51 2.63  85 2.63
   9  0.556  0.778  0.500-  60 2.63  90 2.63  85 2.63  51 2.63  89 2.63  59 2.63
  10  0.556  0.944  0.500-  52 2.63  53 2.63  61 2.63  91 2.63  90 2.63  60 2.63
  11  0.556  0.111  0.500-  86 2.63  87 2.63  62 2.63  92 2.63  91 2.63  61 2.63
  12  0.556  0.444  0.500-  55 2.63  56 2.63  57 2.63  58 2.63  93 2.63  94 2.63
  13  0.389  0.278  0.500-  93 2.63  94 2.63  95 2.63  96 2.63  66 2.63  67 2.63
  14  0.222  0.278  0.500-  95 2.63  96 2.63  68 2.63 102 2.63 103 2.63 104 2.63
  15  0.222  0.444  0.500-  69 2.63  70 2.63  63 2.63  64 2.63 103 2.63 104 2.63
  16  0.222  0.611  0.500-  97 2.63  98 2.63  69 2.63  70 2.63  71 2.63 105 2.63
  17  0.222  0.778  0.500-  99 2.63 100 2.63  71 2.63 105 2.63 106 2.63 107 2.63
  18  0.222  0.111  0.500-  66 2.63  67 2.63  72 2.63 108 2.63 102 2.63  68 2.63
  19  0.056  0.944  0.500-  37 2.63  38 2.63  43 2.63  77 2.63  72 2.63 108 2.63
  20  0.056  0.278  0.500-  41 2.63  42 2.63  39 2.63  40 2.63 103 2.63 104 2.63
  21  0.889  0.278  0.500-  41 2.63  42 2.63  47 2.63  81 2.63  80 2.63  46 2.63
  22  0.056  0.778  0.500-  43 2.63  77 2.63  76 2.63  75 2.63 106 2.63 107 2.63
  23  0.889  0.778  0.500-  43 2.63  77 2.63  44 2.63  78 2.63  49 2.63  83 2.63
  24  0.722  0.778  0.500-  44 2.63  78 2.63  51 2.63  50 2.63  84 2.63  85 2.63
  25  0.722  0.111  0.500-  46 2.63  80 2.63  53 2.63  52 2.63  86 2.63  87 2.63
  26  0.722  0.278  0.500-  47 2.63  81 2.63  54 2.63  86 2.63  87 2.63  88 2.63
  27  0.722  0.444  0.500-  55 2.63  56 2.63  48 2.63  82 2.63  54 2.63  88 2.63
  28  0.722  0.611  0.500-  49 2.63  83 2.63  56 2.63  55 2.63  50 2.63  84 2.63
  29  0.556  0.611  0.500-  50 2.63  84 2.63  59 2.63  89 2.63  58 2.63  57 2.63
  30  0.556  0.278  0.500-  93 2.63  94 2.63  54 2.63  88 2.63  62 2.63  92 2.63
  31  0.389  0.444  0.500-  57 2.63  58 2.63  63 2.63  64 2.63  95 2.63  96 2.63
  32  0.389  0.611  0.500-  97 2.63  98 2.63  59 2.63  89 2.63  64 2.63  63 2.63
  33  0.389  0.778  0.500-  60 2.63  90 2.63  99 2.63 100 2.63  97 2.63  98 2.63
  34  0.389  0.944  0.500-  61 2.63  91 2.63  65 2.63 101 2.63 100 2.63  99 2.63
  35  0.389  0.111  0.500-  66 2.63  67 2.63  62 2.63  92 2.63  65 2.63 101 2.63
  36  0.222  0.944  0.500-  72 2.63 108 2.63 101 2.63  65 2.63 107 2.63 106 2.63
  37  0.000  0.000  0.428-  19 2.63   2 2.63   1 2.63
  38  0.000  0.000  0.572-  19 2.63   2 2.63   1 2.63
  39  0.000  0.167  0.428-  20 2.63   3 2.63   2 2.63
  40  0.000  0.167  0.572-  20 2.63   3 2.63   2 2.63
  41  0.000  0.333  0.428-  20 2.63   4 2.63  21 2.63
  42  0.000  0.333  0.572-  20 2.63   4 2.63  21 2.63
  43  0.000  0.833  0.572-  22 2.63  23 2.63  19 2.63
  44  0.833  0.833  0.428-  24 2.63  23 2.63   1 2.63
  45  0.833  0.000  0.428-   8 2.63   1 2.63   3 2.63
  46  0.833  0.167  0.572-   3 2.63  25 2.63  21 2.63
  47  0.833  0.333  0.572-  26 2.63  21 2.63   5 2.63
  48  0.833  0.500  0.572-  27 2.63   5 2.63   7 2.63
  49  0.833  0.667  0.428-   7 2.63  28 2.63  23 2.63
  50  0.667  0.667  0.428-  29 2.63  24 2.63  28 2.63
  51  0.667  0.833  0.572-   9 2.63  24 2.63   8 2.63
  52  0.667  0.000  0.428-   8 2.63  10 2.63  25 2.63
  53  0.667  0.000  0.572-   8 2.63  10 2.63  25 2.63
  54  0.667  0.333  0.572-  30 2.63  26 2.63  27 2.63
  55  0.667  0.500  0.428-  27 2.63  12 2.63  28 2.63
  56  0.667  0.500  0.572-  27 2.63  12 2.63  28 2.63
  57  0.500  0.500  0.428-  31 2.63  12 2.63  29 2.63
  58  0.500  0.500  0.572-  31 2.63  12 2.63  29 2.63
  59  0.500  0.667  0.428-  32 2.63  29 2.63   9 2.63
  60  0.500  0.833  0.572-   9 2.63  33 2.63  10 2.63
  61  0.500  0.000  0.572-  34 2.63  10 2.63  11 2.63
  62  0.500  0.167  0.572-  35 2.63  11 2.63  30 2.63
  63  0.333  0.500  0.428-  15 2.63  31 2.63  32 2.63
  64  0.333  0.500  0.572-  15 2.63  31 2.63  32 2.63
  65  0.333  0.000  0.428-  36 2.63  34 2.63  35 2.63
  66  0.333  0.167  0.428-  35 2.63  18 2.63  13 2.63
  67  0.333  0.167  0.572-  35 2.63  18 2.63  13 2.63
  68  0.167  0.167  0.572-  14 2.63  18 2.63   2 2.63
  69  0.167  0.500  0.428-  15 2.63  16 2.63   4 2.63
  70  0.167  0.500  0.572-  15 2.63  16 2.63   4 2.63
  71  0.167  0.667  0.428-  17 2.63  16 2.63   6 2.63
  72  0.167  0.000  0.428-  36 2.63  18 2.63  19 2.63
  73  0.000  0.500  0.428-   6 2.63   5 2.63   4 2.63
  74  0.000  0.500  0.572-   6 2.63   5 2.63   4 2.63
  75  0.000  0.667  0.428-  22 2.63   7 2.63   6 2.63
  76  0.000  0.667  0.572-  22 2.63   7 2.63   6 2.63
  77  0.000  0.833  0.428-  22 2.63  23 2.63  19 2.63
  78  0.833  0.833  0.572-  24 2.63  23 2.63   1 2.63
  79  0.833  0.000  0.572-   8 2.63   1 2.63   3 2.63
  80  0.833  0.167  0.428-   3 2.63  25 2.63  21 2.63
  81  0.833  0.333  0.428-  26 2.63  21 2.63   5 2.63
  82  0.833  0.500  0.428-  27 2.63   5 2.63   7 2.63
  83  0.833  0.667  0.572-   7 2.63  28 2.63  23 2.63
  84  0.667  0.667  0.572-  29 2.63  24 2.63  28 2.63
  85  0.667  0.833  0.428-   9 2.63  24 2.63   8 2.63
  86  0.667  0.167  0.428-  11 2.63  26 2.63  25 2.63
  87  0.667  0.167  0.572-  11 2.63  26 2.63  25 2.63
  88  0.667  0.333  0.428-  30 2.63  26 2.63  27 2.63
  89  0.500  0.667  0.572-  32 2.63  29 2.63   9 2.63
  90  0.500  0.833  0.428-   9 2.63  33 2.63  10 2.63
  91  0.500  0.000  0.428-  34 2.63  10 2.63  11 2.63
  92  0.500  0.167  0.428-  35 2.63  11 2.63  30 2.63
  93  0.500  0.333  0.428-  30 2.63  13 2.63  12 2.63
  94  0.500  0.333  0.572-  30 2.63  13 2.63  12 2.63
  95  0.333  0.333  0.428-  14 2.63  13 2.63  31 2.63
  96  0.333  0.333  0.572-  14 2.63  13 2.63  31 2.63
  97  0.333  0.667  0.428-  32 2.63  16 2.63  33 2.63
  98  0.333  0.667  0.572-  32 2.63  16 2.63  33 2.63
  99  0.333  0.833  0.428-  17 2.63  33 2.63  34 2.63
 100  0.333  0.833  0.572-  17 2.63  33 2.63  34 2.63
 101  0.333  0.000  0.572-  36 2.63  34 2.63  35 2.63
 102  0.167  0.167  0.428-  14 2.63  18 2.63   2 2.63
 103  0.167  0.333  0.428-  14 2.63  15 2.63  20 2.63
 104  0.167  0.333  0.572-  14 2.63  15 2.63  20 2.63
 105  0.167  0.667  0.572-  17 2.63  16 2.63   6 2.63
 106  0.167  0.833  0.428-  17 2.63  36 2.63  22 2.63
 107  0.167  0.833  0.572-  17 2.63  36 2.63  22 2.63
 108  0.167  0.000  0.572-  36 2.63  18 2.63  19 2.63
 

IMPORTANT INFORMATION: All symmetrisations will be switched off!
NOSYMM: (Re-)initialisation of all symmetry stuff for point group C_1.

 
 
 KPOINTS: KPT-Resolved Value to Generate K-Mesh: 0

Automatic generation of k-mesh.
Space group operators:
 irot       det(A)        alpha          n_x          n_y          n_z        tau_x        tau_y        tau_z
    1     1.000000     0.000000     1.000000     0.000000     0.000000     0.000000     0.000000     0.000000
 
 Subroutine IBZKPT returns following result:
 ===========================================
 
 Found      1 irreducible k-points:
 
 Following reciprocal coordinates:
            Coordinates               Weight
  0.000000  0.000000  0.000000      1.000000
 
 Following cartesian coordinates:
            Coordinates               Weight
  0.000000  0.000000  0.000000      1.000000
 


--------------------------------------------------------------------------------------------------------




 Dimension of arrays:
   k-points           NKPTS =      1   k-points in BZ     NKDIM =      1   number of bands    NBANDS=    480
   number of dos      NEDOS =    301   number of ions     NIONS =    108
   non local maximal  LDIM  =      6   non local SUM 2l+1 LMDIM =     18
   total plane-waves  NPLWV = 995328
   max r-space proj   IRMAX =   3257   max aug-charges    IRDMAX=   6671
   dimension x,y,z NGX =    96 NGY =   96 NGZ =  108
   dimension x,y,z NGXF=   192 NGYF=  192 NGZF=  216
   support grid    NGXF=   192 NGYF=  192 NGZF=  216
   ions per type =              18  18  36  36
   NGX,Y,Z   is equivalent  to a cutoff of   7.61,  7.61,  7.68 a.u.
   NGXF,Y,Z  is equivalent  to a cutoff of  15.23, 15.23, 15.36 a.u.

 SYSTEM =  unknown system                          
 POSCAR =  POSCAR                                  

 Startparameter for this run:
   NWRITE =      2    write-flag & timer
   PREC   = normal    normal or accurate (medium, high low for compatibility)
   ISTART =      0    job   : 0-new  1-cont  2-samecut
   ICHARG =      2    charge: 1-file 2-atom 10-const
   ISPIN  =      1    spin polarized calculation?
   LNONCOLLINEAR =      F non collinear calculations
   LSORBIT =      F    spin-orbit coupling
   INIWAV =      1    electr: 0-lowe 1-rand  2-diag
   LASPH  =      F    aspherical Exc in radial PAW
   METAGGA=      F    non-selfconsistent MetaGGA calc.

 Electronic Relaxation 1
   ENCUT  =  320.0 eV  23.52 Ry    4.85 a.u.  30.57 30.57 34.09*2*pi/ulx,y,z
   ENINI  =  320.0     initial cutoff
   ENAUG  =  455.7 eV  augmentation charge cutoff
   NELM   =     60;   NELMIN=  2; NELMDL= -5     # of ELM steps 
   EDIFF  = 0.1E-04   stopping-criterion for ELM
   LREAL  =      T    real-space projection
   NLSPLINE    = F    spline interpolate recip. space projectors
   LCOMPAT=      F    compatible to vasp.4.4
   GGA_COMPAT  = T    GGA compatible to vasp.4.4-vasp.4.6
   LMAXPAW     = -100 max onsite density
   LMAXMIX     =    2 max onsite mixed and CHGCAR
   VOSKOWN=      0    Vosko Wilk Nusair interpolation
   ROPT   =   -0.00050  -0.00050  -0.00050  -0.00050
 Ionic relaxation
   EDIFFG = -.2E-01   stopping-criterion for IOM
   NSW    =    300    number of steps for IOM
   NBLOCK =      1;   KBLOCK =    300    inner block; outer block 
   IBRION =      2    ionic relax: 0-MD 1-quasi-New 2-CG
   NFREE  =      1    steps in history (QN), initial steepest desc. (CG)
   ISIF   =      3    stress and relaxation
   IWAVPR =     11    prediction:  0-non 1-charg 2-wave 3-comb
   ISYM   =      0    0-nonsym 1-usesym 2-fastsym
   LCORR  =      T    Harris-Foulkes like correction to forces

   POTIM  = 0.5000    time-step for ionic-motion
   TEIN   =    0.0    initial temperature
   TEBEG  =    0.0;   TEEND  =   0.0 temperature during run
   SMASS  =  -3.00    Nose mass-parameter (am)
   estimated Nose-frequenzy (Omega)   =  0.10E-29 period in steps =****** mass=  -0.100E-25a.u.
   SCALEE = 1.0000    scale energy and forces
   NPACO  =    256;   APACO  = 16.0  distance and # of slots for P.C.
   PSTRESS=    0.0 pullay stress

  Mass of Ions in am
   POMASS =  92.91186.21 32.07 78.96
  Ionic Valenz
   ZVAL   =  13.00  7.00  6.00  6.00
  Atomic Wigner-Seitz radii
   RWIGS  =  -1.00 -1.00 -1.00 -1.00
  virtual crystal weights 
   VCA    =   1.00  1.00  1.00  1.00
   NELECT =     792.0000    total number of electrons
   NUPDOWN=      -1.0000    fix difference up-down

 DOS related values:
   EMIN   =  10.00;   EMAX   =-10.00  energy-range for DOS
   EFERMI =   0.00
   ISMEAR =     0;   SIGMA  =   0.05  broadening in eV -4-tet -1-fermi 0-gaus

 Electronic relaxation 2 (details)
   IALGO  =     38    algorithm
   LDIAG  =      T    sub-space diagonalisation (order eigenvalues)
   LSUBROT=      F    optimize rotation matrix (better conditioning)
   TURBO    =      0    0=normal 1=particle mesh
   IRESTART =      0    0=no restart 2=restart with 2 vectors
   NREBOOT  =      0    no. of reboots
   NMIN     =      0    reboot dimension
   EREF     =   0.00    reference energy to select bands
   IMIX   =      4    mixing-type and parameters
     AMIX     =   0.40;   BMIX     =  1.00
     AMIX_MAG =   1.60;   BMIX_MAG =  1.00
     AMIN     =   0.10
     WC   =   100.;   INIMIX=   1;  MIXPRE=   1;  MAXMIX= -45

 Intra band minimization:
   WEIMIN = 0.0010     energy-eigenvalue tresh-hold
   EBREAK =  0.52E-08  absolut break condition
   DEPER  =   0.30     relativ break condition  

   TIME   =   0.40     timestep for ELM

  volume/ion in A,a.u.               =      82.33       555.56
  Fermi-wavevector in a.u.,A,eV,Ry     =   0.731134  1.381643  7.273093  0.534557
  Thomas-Fermi vector in A             =   1.823276
 
 Write flags
   LWAVE        =      F    write WAVECAR
   LDOWNSAMPLE  =      F    k-point downsampling of WAVECAR
   LCHARG       =      F    write CHGCAR
   LVTOT        =      F    write LOCPOT, total local potential
   LVHAR        =      F    write LOCPOT, Hartree potential only
   LELF         =      F    write electronic localiz. function (ELF)
   LORBIT       =      0    0 simple, 1 ext, 2 COOP (PROOUT), +10 PAW based schemes


 Dipole corrections
   LMONO  =      F    monopole corrections only (constant potential shift)
   LDIPOL =      F    correct potential (dipole corrections)
   IDIPOL =      0    1-x, 2-y, 3-z, 4-all directions 
   EPSILON=  1.0000000 bulk dielectric constant

 Exchange correlation treatment:
   GGA     =    --    GGA type
   LEXCH   =     8    internal setting for exchange type
   VOSKOWN=      0    Vosko Wilk Nusair interpolation
   LHFCALC =     F    Hartree Fock is set to
   LHFONE  =     F    Hartree Fock one center treatment
   AEXX    =    0.0000 exact exchange contribution

 Linear response parameters
   LEPSILON=     F    determine dielectric tensor
   LRPA    =     F    only Hartree local field effects (RPA)
   LNABLA  =     F    use nabla operator in PAW spheres
   LVEL    =     F    velocity operator in full k-point grid
   LINTERFAST=   F  fast interpolation
   KINTER  =     0    interpolate to denser k-point grid
   CSHIFT  =0.1000    complex shift for real part using Kramers Kronig
   OMEGAMAX=  -1.0    maximum frequency
   DEG_THRESHOLD= 0.2000000E-02 threshold for treating states as degnerate
   RTIME   =   -0.100 relaxation time in fs
  (WPLASMAI=    0.000 imaginary part of plasma frequency in eV, 0.658/RTIME)
   DFIELD  = 0.0000000 0.0000000 0.0000000 field for delta impulse in time
 
 Orbital magnetization related:
   ORBITALMAG=     F  switch on orbital magnetization
   LCHIMAG   =     F  perturbation theory with respect to B field
   DQ        =  0.001000  dq finite difference perturbation B field
   LLRAUG    =     F  two centre corrections for induced B field



--------------------------------------------------------------------------------------------------------


 conjugate gradient relaxation of ions
 charge density and potential will be updated during run
 non-spin polarized calculation
 Variant of blocked Davidson
 Davidson routine will perform the subspace rotation
 perform sub-space diagonalisation
    after iterative eigenvector-optimisation
 modified Broyden-mixing scheme, WC =      100.0
 initial mixing is a Kerker type mixing with AMIX =  0.4000 and BMIX =      1.0000
 Hartree-type preconditioning will be used
 using additional bands           84
 real space projection scheme for non local part
 use partial core corrections
 calculate Harris-corrections to forces 
   (improved forces if not selfconsistent)
 use gradient corrections 
 use of overlap-Matrix (Vanderbilt PP)
 Gauss-broadening in eV      SIGMA  =   0.05


--------------------------------------------------------------------------------------------------------


  energy-cutoff  :      320.00
  volume of cell :     8891.16
      direct lattice vectors                 reciprocal lattice vectors
   -10.479500000-18.151026000  0.000000000     0.000000000 -0.055093304  0.000000000
    20.959000000  0.000000000  0.000000000     0.047712200 -0.027546652  0.000000000
     0.000000000  0.000000000 23.371500000     0.000000000  0.000000000  0.042787155

  length of vectors
    20.958999621 20.959000000 23.371500000     0.055093304  0.055093303  0.042787155


 
 k-points in units of 2pi/SCALE and weight: KPT-Resolved Value to Generate K-Mesh: 0
   0.00000000  0.00000000  0.00000000       1.000
 
 k-points in reciprocal lattice and weights: KPT-Resolved Value to Generate K-Mesh: 0
   0.00000000  0.00000000  0.00000000       1.000
 
 position of ions in fractional coordinates (direct lattice) 
   0.88889000  0.94445000  0.50000000
   0.05554700  0.11110700  0.50000000
   0.88889000  0.11112000  0.50000000
   0.05554700  0.44443700  0.50000000
   0.88889000  0.44445000  0.50000000
   0.05554700  0.61110700  0.50000000
   0.88889000  0.61112000  0.50000000
   0.72222000  0.94445000  0.50000000
   0.55556000  0.77779000  0.50000000
   0.55556000  0.94445000  0.50000000
   0.55556000  0.11112000  0.50000000
   0.55556000  0.44445000  0.50000000
   0.38889000  0.27778000  0.50000000
   0.22222000  0.27778000  0.50000000
   0.22222000  0.44445000  0.50000000
   0.22222000  0.61111000  0.50000000
   0.22222000  0.77778000  0.50000000
   0.22222000  0.11111000  0.50000000
   0.05554700  0.94444400  0.50000000
   0.05554700  0.27777700  0.50000000
   0.88889000  0.27778000  0.50000000
   0.05554700  0.77777700  0.50000000
   0.88889000  0.77778000  0.50000000
   0.72222000  0.77778000  0.50000000
   0.72222000  0.11111000  0.50000000
   0.72222000  0.27778000  0.50000000
   0.72222000  0.44445000  0.50000000
   0.72222000  0.61111000  0.50000000
   0.55556000  0.61112000  0.50000000
   0.55556000  0.27779000  0.50000000
   0.38889000  0.44445000  0.50000000
   0.38889000  0.61112000  0.50000000
   0.38889000  0.77778000  0.50000000
   0.38889000  0.94445000  0.50000000
   0.38889000  0.11112000  0.50000000
   0.22222000  0.94445000  0.50000000
   0.00000000  0.00000000  0.42787000
   0.00000000  0.00000000  0.57213000
   0.00000000  0.16667000  0.42787000
   0.00000000  0.16667000  0.57213000
   0.00000000  0.33333000  0.42787000
   0.00000000  0.33333000  0.57213000
   0.00000000  0.83333000  0.57213000
   0.83333000  0.83333000  0.42787000
   0.83333000  0.00000000  0.42787000
   0.83333000  0.16666000  0.57213000
   0.83333000  0.33333000  0.57213000
   0.83333000  0.50000000  0.57213000
   0.83333000  0.66666000  0.42787000
   0.66667000  0.66667000  0.42787000
   0.66667000  0.83334000  0.57213000
   0.66667000  0.00000000  0.42787000
   0.66667000  0.00000000  0.57213000
   0.66667000  0.33334000  0.57213000
   0.66667000  0.50000000  0.42787000
   0.66667000  0.50000000  0.57213000
   0.50000000  0.50000000  0.42787000
   0.50000000  0.50000000  0.57213000
   0.50000000  0.66667000  0.42787000
   0.50000000  0.83333000  0.57213000
   0.50000000  0.00000000  0.57213000
   0.50000000  0.16667000  0.57213000
   0.33333000  0.50000000  0.42787000
   0.33333000  0.50000000  0.57213000
   0.33333000  0.00000000  0.42787000
   0.33333000  0.16666000  0.42787000
   0.33333000  0.16666000  0.57213000
   0.16667000  0.16667000  0.57213000
   0.16667000  0.50000000  0.42787000
   0.16667000  0.50000000  0.57213000
   0.16667000  0.66667000  0.42787000
   0.16667000  0.00000000  0.42787000
   0.00000000  0.50000000  0.42787000
   0.00000000  0.50000000  0.57213000
   0.00000000  0.66667000  0.42787000
   0.00000000  0.66667000  0.57213000
   0.00000000  0.83333000  0.42787000
   0.83333000  0.83333000  0.57213000
   0.83333000  0.00000000  0.57213000
   0.83333000  0.16666000  0.42787000
   0.83333000  0.33333000  0.42787000
   0.83333000  0.50000000  0.42787000
   0.83333000  0.66666000  0.57213000
   0.66667000  0.66667000  0.57213000
   0.66667000  0.83334000  0.42787000
   0.66667000  0.16667000  0.42787000
   0.66667000  0.16667000  0.57213000
   0.66667000  0.33334000  0.42787000
   0.50000000  0.66667000  0.57213000
   0.50000000  0.83333000  0.42787000
   0.50000000  0.00000000  0.42787000
   0.50000000  0.16667000  0.42787000
   0.50000000  0.33333000  0.42787000
   0.50000000  0.33333000  0.57213000
   0.33333000  0.33333000  0.42787000
   0.33333000  0.33333000  0.57213000
   0.33333000  0.66666000  0.42787000
   0.33333000  0.66666000  0.57213000
   0.33333000  0.83333000  0.42787000
   0.33333000  0.83333000  0.57213000
   0.33333000  0.00000000  0.57213000
   0.16667000  0.16667000  0.42787000
   0.16667000  0.33334000  0.42787000
   0.16667000  0.33334000  0.57213000
   0.16667000  0.66667000  0.57213000
   0.16667000  0.83334000  0.42787000
   0.16667000  0.83334000  0.57213000
   0.16667000  0.00000000  0.57213000
 
 position of ions in cartesian coordinates  (Angst):
  10.47960480-16.13426550 11.68575000
   1.74658683 -1.00823504 11.68575000
  -6.98615868-16.13426550 11.68575000
   8.73285030 -1.00823504 11.68575000
   0.00010480-16.13426550 11.68575000
  12.22608683 -1.00823504 11.68575000
   3.49334132-16.13426550 11.68575000
  12.22622306-13.10903400 11.68575000
  10.47970959-10.08398400 11.68575000
  13.97273653-10.08398400 11.68575000
  -3.49302694-10.08398400 11.68575000
   3.49323653-10.08398400 11.68575000
   1.74661826 -7.05875250 11.68575000
   3.49323653 -4.03352100 11.68575000
   6.98647306 -4.03352100 11.68575000
  10.47950000 -4.03352100 11.68575000
  13.97273653 -4.03352100 11.68575000
  -0.00000000 -4.03352100 11.68575000
  19.21249701 -1.00823504 11.68575000
   5.23982336 -1.00823504 11.68575000
  -3.49313174-16.13426550 11.68575000
  15.71932336 -1.00823504 11.68575000
   6.98636826-16.13426550 11.68575000
   8.73298653-13.10903400 11.68575000
  -5.23975000-13.10903400 11.68575000
  -1.74651347-13.10903400 11.68575000
   1.74672306-13.10903400 11.68575000
   5.23975000-13.10903400 11.68575000
   6.98647306-10.08398400 11.68575000
   0.00020959-10.08398400 11.68575000
   5.23985480 -7.05875250 11.68575000
   8.73309132 -7.05875250 11.68575000
  12.22611826 -7.05875250 11.68575000
  15.71935480 -7.05875250 11.68575000
  -1.74640868 -7.05875250 11.68575000
  17.46597306 -4.03352100 11.68575000
   0.00000000  0.00000000  9.99996370
   0.00000000  0.00000000 13.37153630
   3.49323653  0.00000000  9.99996370
   3.49323653  0.00000000 13.37153630
   6.98626347  0.00000000  9.99996370
   6.98626347  0.00000000 13.37153630
  17.46576347  0.00000000 13.37153630
   8.73288173-15.12579450  9.99996370
  -8.73288173-15.12579450  9.99996370
  -5.23985479-15.12579450 13.37153630
  -1.74661827-15.12579450 13.37153630
   1.74661827-15.12579450 13.37153630
   5.23964521-15.12579450  9.99996370
   6.98636827-12.10074450  9.99996370
  10.47960479-12.10074450 13.37153630
  -6.98636827-12.10074450  9.99996370
  -6.98636827-12.10074450 13.37153630
   0.00010479-12.10074450 13.37153630
   3.49313173-12.10074450  9.99996370
   3.49313173-12.10074450 13.37153630
   5.23975000 -9.07551300  9.99996370
   5.23975000 -9.07551300 13.37153630
   8.73298653 -9.07551300  9.99996370
  12.22601347 -9.07551300 13.37153630
  -5.23975000 -9.07551300 13.37153630
  -1.74651347 -9.07551300 13.37153630
   6.98636827 -6.05028150  9.99996370
   6.98636827 -6.05028150 13.37153630
  -3.49313173 -6.05028150  9.99996370
  -0.00010479 -6.05028150  9.99996370
  -0.00010479 -6.05028150 13.37153630
   1.74661827 -3.02523150 13.37153630
   8.73288173 -3.02523150  9.99996370
   8.73288173 -3.02523150 13.37153630
  12.22611827 -3.02523150  9.99996370
  -1.74661827 -3.02523150  9.99996370
  10.47950000  0.00000000  9.99996370
  10.47950000  0.00000000 13.37153630
  13.97273653  0.00000000  9.99996370
  13.97273653  0.00000000 13.37153630
  17.46576347  0.00000000  9.99996370
   8.73288173-15.12579450 13.37153630
  -8.73288173-15.12579450 13.37153630
  -5.23985479-15.12579450  9.99996370
  -1.74661827-15.12579450  9.99996370
   1.74661827-15.12579450  9.99996370
   5.23964521-15.12579450 13.37153630
   6.98636827-12.10074450 13.37153630
  10.47960479-12.10074450  9.99996370
  -3.49313173-12.10074450  9.99996370
  -3.49313173-12.10074450 13.37153630
   0.00010479-12.10074450  9.99996370
   8.73298653 -9.07551300 13.37153630
  12.22601347 -9.07551300  9.99996370
  -5.23975000 -9.07551300  9.99996370
  -1.74651347 -9.07551300  9.99996370
   1.74651347 -9.07551300  9.99996370
   1.74651347 -9.07551300 13.37153630
   3.49313173 -6.05028150  9.99996370
   3.49313173 -6.05028150 13.37153630
  10.47939521 -6.05028150  9.99996370
  10.47939521 -6.05028150 13.37153630
  13.97263173 -6.05028150  9.99996370
  13.97263173 -6.05028150 13.37153630
  -3.49313173 -6.05028150 13.37153630
   1.74661827 -3.02523150  9.99996370
   5.23985479 -3.02523150  9.99996370
   5.23985479 -3.02523150 13.37153630
  12.22611827 -3.02523150 13.37153630
  15.71935479 -3.02523150  9.99996370
  15.71935479 -3.02523150 13.37153630
  -1.74661827 -3.02523150 13.37153630
 


--------------------------------------------------------------------------------------------------------


 k-point  1 :   0.0000 0.0000 0.0000  plane waves:  115611

 maximum and minimum number of plane-waves per node :    115611   115611

 maximum number of plane-waves:    115611
 maximum index in each direction: 
   IXMAX=   30   IYMAX=   30   IZMAX=   34
   IXMIN=  -30   IYMIN=  -30   IZMIN=  -34


 serial   3D FFT for wavefunctions
 parallel 3D FFT for charge:
    minimum data exchange during FFTs selected (reduces bandwidth)


 total amount of memory used by VASP MPI-rank0   177530. kBytes
=======================================================================

   base      :      30000. kBytes
   nonlr-proj:      29102. kBytes
   fftplans  :      15274. kBytes
   grid      :      64020. kBytes
   one-center:       1679. kBytes
   wavefun   :      37455. kBytes
 
     INWAV:  cpu time    0.0000: real time    0.0001
 Broyden mixing: mesh for mixing (old mesh)
   NGX = 61   NGY = 61   NGZ = 69
  (NGX  =192   NGY  =192   NGZ  =216)
  gives a total of 256749 points

 initial charge density was supplied:
 charge density of overlapping atoms calculated
 number of electron     792.0000000 magnetization 
 keeping initial charge density in first step


--------------------------------------------------------------------------------------------------------


 Maximum index for non-local projection operator         3132
 Maximum index for augmentation-charges          357 (set IRDMAX)


--------------------------------------------------------------------------------------------------------


 First call to EWALD:  gamma=   0.086
 Maximum number of real-space cells 3x 3x 2
 Maximum number of reciprocal cells 3x 3x 3

    FEWALD:  cpu time    0.0035: real time    0.0041


--------------------------------------- Iteration      1(   1)  ---------------------------------------


    POTLOK:  cpu time    0.2910: real time    0.2941
    SETDIJ:  cpu time    0.0097: real time    0.0098
     EDDAV:  cpu time   15.1877: real time   15.2442
       DOS:  cpu time    0.0006: real time    0.0006
    --------------------------------------------
      LOOP:  cpu time   15.4891: real time   15.5487

 eigenvalue-minimisations  :  1632
 total energy-change (2. order) : 0.7049073E+04  (-0.2338591E+05)
 number of electron     792.0000000 magnetization 
 augmentation part      792.0000000 magnetization 

 Free energy of the ion-electron system (eV)
  ---------------------------------------------------
  alpha Z        PSCENC =       667.77982703
  Ewald energy   TEWEN  =    144990.07653470
  -Hartree energ DENC   =   -190932.09927541
  -exchange      EXHF   =         0.00000000
  -V(xc)+E(xc)   XCENC  =       570.21021195
  PAW double counting   =     43575.64502536   -41516.97141427
  entropy T*S    EENTRO =        -0.06455495
  eigenvalues    EBANDS =     -2913.49092145
  atomic energy  EATOM  =     52607.98737452
  Solvation  Ediel_sol  =         0.00000000
  ---------------------------------------------------
  free energy    TOTEN  =      7049.07280747 eV

  energy without entropy =     7049.13736242  energy(sigma->0) =     7049.10508495


--------------------------------------------------------------------------------------------------------




--------------------------------------- Iteration      1(   2)  ---------------------------------------


     EDDAV:  cpu time   15.1745: real time   15.2338
       DOS:  cpu time    0.0003: real time    0.0003
    --------------------------------------------
      LOOP:  cpu time   15.1749: real time   15.2341

 eigenvalue-minimisations  :  1656
 total energy-change (2. order) :-0.6068059E+04  (-0.5795669E+04)
 number of electron     792.0000000 magnetization 
 augmentation part      792.0000000 magnetization 

 Free energy of the ion-electron system (eV)
  ---------------------------------------------------
  alpha Z        PSCENC =       667.77982703
  Ewald energy   TEWEN  =    144990.07653470
  -Hartree energ DENC   =   -190932.09927541
  -exchange      EXHF   =         0.00000000
  -V(xc)+E(xc)   XCENC  =       570.21021195
  PAW double counting   =     43575.64502536   -41516.97141427
  entropy T*S    EENTRO =        -0.03184447
  eigenvalues    EBANDS =     -8981.58221672
  atomic energy  EATOM  =     52607.98737452
  Solvation  Ediel_sol  =         0.00000000
  ---------------------------------------------------
  free energy    TOTEN  =       981.01422269 eV

  energy without entropy =      981.04606716  energy(sigma->0) =      981.03014493


--------------------------------------------------------------------------------------------------------




--------------------------------------- Iteration      1(   3)  ---------------------------------------


     EDDAV:  cpu time   16.7391: real time   16.7882
       DOS:  cpu time    0.0002: real time    0.0002
    --------------------------------------------
      LOOP:  cpu time   16.7393: real time   16.7884

 eigenvalue-minimisations  :  1872
 total energy-change (2. order) :-0.1562296E+04  (-0.1535929E+04)
 number of electron     792.0000000 magnetization 
 augmentation part      792.0000000 magnetization 

 Free energy of the ion-electron system (eV)
  ---------------------------------------------------
  alpha Z        PSCENC =       667.77982703
  Ewald energy   TEWEN  =    144990.07653470
  -Hartree energ DENC   =   -190932.09927541
  -exchange      EXHF   =         0.00000000
  -V(xc)+E(xc)   XCENC  =       570.21021195
  PAW double counting   =     43575.64502536   -41516.97141427
  entropy T*S    EENTRO =        -0.00000000
  eigenvalues    EBANDS =    -10543.91039704
  atomic energy  EATOM  =     52607.98737452
  Solvation  Ediel_sol  =         0.00000000
  ---------------------------------------------------
  free energy    TOTEN  =      -581.28211317 eV

  energy without entropy =     -581.28211317  energy(sigma->0) =     -581.28211317


--------------------------------------------------------------------------------------------------------




--------------------------------------- Iteration      1(   4)  ---------------------------------------


     EDDAV:  cpu time   16.3123: real time   16.3578
       DOS:  cpu time    0.0002: real time    0.0002
    --------------------------------------------
      LOOP:  cpu time   16.3125: real time   16.3579

 eigenvalue-minimisations  :  1824
 total energy-change (2. order) :-0.1809440E+03  (-0.1756435E+03)
 number of electron     792.0000000 magnetization 
 augmentation part      792.0000000 magnetization 

 Free energy of the ion-electron system (eV)
  ---------------------------------------------------
  alpha Z        PSCENC =       667.77982703
  Ewald energy   TEWEN  =    144990.07653470
  -Hartree energ DENC   =   -190932.09927541
  -exchange      EXHF   =         0.00000000
  -V(xc)+E(xc)   XCENC  =       570.21021195
  PAW double counting   =     43575.64502536   -41516.97141427
  entropy T*S    EENTRO =        -0.00000000
  eigenvalues    EBANDS =    -10724.85436717
  atomic energy  EATOM  =     52607.98737452
  Solvation  Ediel_sol  =         0.00000000
  ---------------------------------------------------
  free energy    TOTEN  =      -762.22608329 eV

  energy without entropy =     -762.22608329  energy(sigma->0) =     -762.22608329


--------------------------------------------------------------------------------------------------------




--------------------------------------- Iteration      1(   5)  ---------------------------------------


     EDDAV:  cpu time   16.4095: real time   16.4755
       DOS:  cpu time    0.0002: real time    0.0002
    CHARGE:  cpu time    0.6667: real time    0.6683
    MIXING:  cpu time    0.0079: real time    0.0079
    --------------------------------------------
      LOOP:  cpu time   17.0842: real time   17.1519

 eigenvalue-minimisations  :  1824
 total energy-change (2. order) :-0.3145662E+02  (-0.3064835E+02)
 number of electron     791.9998758 magnetization 
 augmentation part      -31.8564909 magnetization 

 Broyden mixing:
  rms(total) = 0.99186E+01    rms(broyden)= 0.99175E+01
  rms(prec ) = 0.10238E+02
  weight for this iteration     100.00

 Free energy of the ion-electron system (eV)
  ---------------------------------------------------
  alpha Z        PSCENC =       667.77982703
  Ewald energy   TEWEN  =    144990.07653470
  -Hartree energ DENC   =   -190932.09927541
  -exchange      EXHF   =         0.00000000
  -V(xc)+E(xc)   XCENC  =       570.21021195
  PAW double counting   =     43575.64502536   -41516.97141427
  entropy T*S    EENTRO =        -0.00000000
  eigenvalues    EBANDS =    -10756.31098911
  atomic energy  EATOM  =     52607.98737452
  Solvation  Ediel_sol  =         0.00000000
  ---------------------------------------------------
  free energy    TOTEN  =      -793.68270524 eV

  energy without entropy =     -793.68270524  energy(sigma->0) =     -793.68270524


--------------------------------------------------------------------------------------------------------




--------------------------------------- Iteration      1(   6)  ---------------------------------------


    POTLOK:  cpu time    0.2747: real time    0.2762
    SETDIJ:  cpu time    0.0098: real time    0.0098
     EDDAV:  cpu time   16.5996: real time   16.6526
       DOS:  cpu time    0.0003: real time    0.0003
    CHARGE:  cpu time    0.6650: real time    0.6671
    MIXING:  cpu time    0.0078: real time    0.0078
    --------------------------------------------
      LOOP:  cpu time   17.5572: real time   17.6138

 eigenvalue-minimisations  :  1824
 total energy-change (2. order) : 0.3459822E+02  (-0.7293555E+02)
 number of electron     791.9998864 magnetization 
 augmentation part      -12.9291807 magnetization 

 Broyden mixing:
  rms(total) = 0.50880E+01    rms(broyden)= 0.50874E+01
  rms(prec ) = 0.56236E+01
  weight for this iteration     100.00

 eigenvalues of (default mixing * dielectric matrix)
  average eigenvalue GAMMA=   0.8107
  0.8107

 Free energy of the ion-electron system (eV)
  ---------------------------------------------------
  alpha Z        PSCENC =       667.77982703
  Ewald energy   TEWEN  =    144990.07653470
  -Hartree energ DENC   =   -190241.88108534
  -exchange      EXHF   =         0.00000000
  -V(xc)+E(xc)   XCENC  =       571.59492899
  PAW double counting   =     50810.20053126   -48837.00778006
  entropy T*S    EENTRO =        -0.04384496
  eigenvalues    EBANDS =    -11327.79097341
  atomic energy  EATOM  =     52607.98737452
  Solvation  Ediel_sol  =         0.00000000
  ---------------------------------------------------
  free energy    TOTEN  =      -759.08448727 eV

  energy without entropy =     -759.04064231  energy(sigma->0) =     -759.06256479


--------------------------------------------------------------------------------------------------------




--------------------------------------- Iteration      1(   7)  ---------------------------------------


    POTLOK:  cpu time    0.2723: real time    0.2738
    SETDIJ:  cpu time    0.0095: real time    0.0095
     EDDAV:  cpu time   16.2834: real time   16.3391
       DOS:  cpu time    0.0002: real time    0.0002
    CHARGE:  cpu time    0.6656: real time    0.6671
    MIXING:  cpu time    0.0081: real time    0.0081
    --------------------------------------------
      LOOP:  cpu time   17.2391: real time   17.2979

 eigenvalue-minimisations  :  1800
 total energy-change (2. order) : 0.3632022E+01  (-0.4367676E+02)
 number of electron     791.9998801 magnetization 
 augmentation part      -25.5640146 magnetization 

 Broyden mixing:
  rms(total) = 0.45769E+01    rms(broyden)= 0.45759E+01
  rms(prec ) = 0.48967E+01
  weight for this iteration     100.00

 eigenvalues of (default mixing * dielectric matrix)
  average eigenvalue GAMMA=   0.9537
  1.4702  0.4371

 Free energy of the ion-electron system (eV)
  ---------------------------------------------------
  alpha Z        PSCENC =       667.77982703
  Ewald energy   TEWEN  =    144990.07653470
  -Hartree energ DENC   =   -190448.92755791
  -exchange      EXHF   =         0.00000000
  -V(xc)+E(xc)   XCENC  =       561.04168932
  PAW double counting   =     54797.75623302   -52825.25019499
  entropy T*S    EENTRO =        -0.00000000
  eigenvalues    EBANDS =    -11105.91637131
  atomic energy  EATOM  =     52607.98737452
  Solvation  Ediel_sol  =         0.00000000
  ---------------------------------------------------
  free energy    TOTEN  =      -755.45246563 eV

  energy without entropy =     -755.45246563  energy(sigma->0) =     -755.45246563


--------------------------------------------------------------------------------------------------------




--------------------------------------- Iteration      1(   8)  ---------------------------------------


    POTLOK:  cpu time    0.2686: real time    0.2697
    SETDIJ:  cpu time    0.0095: real time    0.0095
     EDDAV:  cpu time   16.7572: real time   16.8096
       DOS:  cpu time    0.0003: real time    0.0003
    CHARGE:  cpu time    0.6662: real time    0.6681
    MIXING:  cpu time    0.0092: real time    0.0092
    --------------------------------------------
      LOOP:  cpu time   17.7111: real time   17.7665

 eigenvalue-minimisations  :  1848
 total energy-change (2. order) : 0.1498292E+02  (-0.8909022E+01)
 number of electron     791.9998845 magnetization 
 augmentation part      -26.7177371 magnetization 

 Broyden mixing:
  rms(total) = 0.16182E+01    rms(broyden)= 0.16178E+01
  rms(prec ) = 0.17368E+01
  weight for this iteration     100.00

 eigenvalues of (default mixing * dielectric matrix)
  average eigenvalue GAMMA=   0.9296
  1.6473  0.6335  0.5080

 Free energy of the ion-electron system (eV)
  ---------------------------------------------------
  alpha Z        PSCENC =       667.77982703
  Ewald energy   TEWEN  =    144990.07653470
  -Hartree energ DENC   =   -190653.85950491
  -exchange      EXHF   =         0.00000000
  -V(xc)+E(xc)   XCENC  =       566.74142932
  PAW double counting   =     60727.96223387   -58754.30895629
  entropy T*S    EENTRO =        -0.00000071
  eigenvalues    EBANDS =    -10892.84848715
  atomic energy  EATOM  =     52607.98737452
  Solvation  Ediel_sol  =         0.00000000
  ---------------------------------------------------
  free energy    TOTEN  =      -740.46954961 eV

  energy without entropy =     -740.46954891  energy(sigma->0) =     -740.46954926


--------------------------------------------------------------------------------------------------------




--------------------------------------- Iteration      1(   9)  ---------------------------------------


    POTLOK:  cpu time    0.2710: real time    0.2754
    SETDIJ:  cpu time    0.0094: real time    0.0094
     EDDAV:  cpu time   16.7014: real time   16.7461
       DOS:  cpu time    0.0003: real time    0.0003
    CHARGE:  cpu time    0.6636: real time    0.6655
    MIXING:  cpu time    0.0089: real time    0.0089
    --------------------------------------------
      LOOP:  cpu time   17.6546: real time   17.7056

 eigenvalue-minimisations  :  1848
 total energy-change (2. order) : 0.7112816E+00  (-0.2664284E+01)
 number of electron     791.9998869 magnetization 
 augmentation part      -25.3500002 magnetization 

 Broyden mixing:
  rms(total) = 0.10795E+01    rms(broyden)= 0.10791E+01
  rms(prec ) = 0.11911E+01
  weight for this iteration     100.00

 eigenvalues of (default mixing * dielectric matrix)
  average eigenvalue GAMMA=   0.8350
  1.6207  0.7316  0.4939  0.4939

 Free energy of the ion-electron system (eV)
  ---------------------------------------------------
  alpha Z        PSCENC =       667.77982703
  Ewald energy   TEWEN  =    144990.07653470
  -Hartree energ DENC   =   -190681.36540822
  -exchange      EXHF   =         0.00000000
  -V(xc)+E(xc)   XCENC  =       570.44121042
  PAW double counting   =     62174.02869465   -60193.08303355
  entropy T*S    EENTRO =        -0.05882937
  eigenvalues    EBANDS =    -10875.56463825
  atomic energy  EATOM  =     52607.98737452
  Solvation  Ediel_sol  =         0.00000000
  ---------------------------------------------------
  free energy    TOTEN  =      -739.75826806 eV

  energy without entropy =     -739.69943870  energy(sigma->0) =     -739.72885338


--------------------------------------------------------------------------------------------------------




--------------------------------------- Iteration      1(  10)  ---------------------------------------


    POTLOK:  cpu time    0.2710: real time    0.2718
    SETDIJ:  cpu time    0.0092: real time    0.0093
     EDDAV:  cpu time   16.8627: real time   16.9074
       DOS:  cpu time    0.0003: real time    0.0003
    CHARGE:  cpu time    0.6685: real time    0.6703
    MIXING:  cpu time    0.0092: real time    0.0092
    --------------------------------------------
      LOOP:  cpu time   17.8209: real time   17.8682

 eigenvalue-minimisations  :  1872
 total energy-change (2. order) : 0.5409932E+00  (-0.1178255E+01)
 number of electron     791.9998864 magnetization 
 augmentation part      -25.6351141 magnetization 

 Broyden mixing:
  rms(total) = 0.81966E+00    rms(broyden)= 0.81922E+00
  rms(prec ) = 0.85850E+00
  weight for this iteration     100.00

 eigenvalues of (default mixing * dielectric matrix)
  average eigenvalue GAMMA=   0.8055
  1.3655  1.1353  0.7100  0.4663  0.3503

 Free energy of the ion-electron system (eV)
  ---------------------------------------------------
  alpha Z        PSCENC =       667.77982703
  Ewald energy   TEWEN  =    144990.07653470
  -Hartree energ DENC   =   -190670.34575669
  -exchange      EXHF   =         0.00000000
  -V(xc)+E(xc)   XCENC  =       570.66184220
  PAW double counting   =     62192.38608240   -60206.24284997
  entropy T*S    EENTRO =        -0.02156944
  eigenvalues    EBANDS =    -10891.49875963
  atomic energy  EATOM  =     52607.98737452
  Solvation  Ediel_sol  =         0.00000000
  ---------------------------------------------------
  free energy    TOTEN  =      -739.21727487 eV

  energy without entropy =     -739.19570543  energy(sigma->0) =     -739.20649015


--------------------------------------------------------------------------------------------------------




--------------------------------------- Iteration      1(  11)  ---------------------------------------


    POTLOK:  cpu time    0.2699: real time    0.2720
    SETDIJ:  cpu time    0.0094: real time    0.0094
     EDDAV:  cpu time   16.8855: real time   16.9321
       DOS:  cpu time    0.0003: real time    0.0003
    CHARGE:  cpu time    0.6620: real time    0.6639
    MIXING:  cpu time    0.0097: real time    0.0098
    --------------------------------------------
      LOOP:  cpu time   17.8369: real time   17.8874

 eigenvalue-minimisations  :  1872
 total energy-change (2. order) : 0.1084629E+00  (-0.2503016E+00)
 number of electron     791.9998863 magnetization 
 augmentation part      -25.6258940 magnetization 

 Broyden mixing:
  rms(total) = 0.56438E+00    rms(broyden)= 0.56423E+00
  rms(prec ) = 0.59426E+00
  weight for this iteration     100.00

 eigenvalues of (default mixing * dielectric matrix)
  average eigenvalue GAMMA=   1.0316
  2.0282  2.0282  0.6470  0.6470  0.5002  0.3392

 Free energy of the ion-electron system (eV)
  ---------------------------------------------------
  alpha Z        PSCENC =       667.77982703
  Ewald energy   TEWEN  =    144990.07653470
  -Hartree energ DENC   =   -190686.12858997
  -exchange      EXHF   =         0.00000000
  -V(xc)+E(xc)   XCENC  =       571.39697031
  PAW double counting   =     62081.04437850   -60086.44396885
  entropy T*S    EENTRO =        -0.00509422
  eigenvalues    EBANDS =    -10884.81624403
  atomic energy  EATOM  =     52607.98737452
  Solvation  Ediel_sol  =         0.00000000
  ---------------------------------------------------
  free energy    TOTEN  =      -739.10881200 eV

  energy without entropy =     -739.10371778  energy(sigma->0) =     -739.10626489


--------------------------------------------------------------------------------------------------------




--------------------------------------- Iteration      1(  12)  ---------------------------------------


    POTLOK:  cpu time    0.2704: real time    0.2711
    SETDIJ:  cpu time    0.0096: real time    0.0096
     EDDAV:  cpu time   16.4402: real time   16.4878
       DOS:  cpu time    0.0003: real time    0.0003
    CHARGE:  cpu time    0.6624: real time    0.6643
    MIXING:  cpu time    0.0122: real time    0.0123
    --------------------------------------------
      LOOP:  cpu time   17.3951: real time   17.4454

 eigenvalue-minimisations  :  1800
 total energy-change (2. order) :-0.2106328E+00  (-0.3076757E+00)
 number of electron     791.9998873 magnetization 
 augmentation part      -24.9630401 magnetization 

 Broyden mixing:
  rms(total) = 0.46944E+00    rms(broyden)= 0.46888E+00
  rms(prec ) = 0.58363E+00
  weight for this iteration     100.00

 eigenvalues of (default mixing * dielectric matrix)
  average eigenvalue GAMMA=   1.0178
  2.2383  2.2383  0.7215  0.7215  0.4296  0.4296  0.3461

 Free energy of the ion-electron system (eV)
  ---------------------------------------------------
  alpha Z        PSCENC =       667.77982703
  Ewald energy   TEWEN  =    144990.07653470
  -Hartree energ DENC   =   -190772.51085216
  -exchange      EXHF   =         0.00000000
  -V(xc)+E(xc)   XCENC  =       573.99231000
  PAW double counting   =     61900.18329667   -59885.58062658
  entropy T*S    EENTRO =        -0.06125325
  eigenvalues    EBANDS =    -10821.18605576
  atomic energy  EATOM  =     52607.98737452
  Solvation  Ediel_sol  =         0.00000000
  ---------------------------------------------------
  free energy    TOTEN  =      -739.31944482 eV

  energy without entropy =     -739.25819157  energy(sigma->0) =     -739.28881819


--------------------------------------------------------------------------------------------------------




--------------------------------------- Iteration      1(  13)  ---------------------------------------


    POTLOK:  cpu time    0.2701: real time    0.2747
    SETDIJ:  cpu time    0.0096: real time    0.0096
     EDDAV:  cpu time   16.3270: real time   16.3733
       DOS:  cpu time    0.0003: real time    0.0003
    CHARGE:  cpu time    0.6651: real time    0.6667
    MIXING:  cpu time    0.0117: real time    0.0118
    --------------------------------------------
      LOOP:  cpu time   17.2838: real time   17.3363

 eigenvalue-minimisations  :  1800
 total energy-change (2. order) : 0.2054408E+00  (-0.3989091E+00)
 number of electron     791.9998868 magnetization 
 augmentation part      -25.3826233 magnetization 

 Broyden mixing:
  rms(total) = 0.28383E+00    rms(broyden)= 0.28313E+00
  rms(prec ) = 0.33285E+00
  weight for this iteration     100.00

 eigenvalues of (default mixing * dielectric matrix)
  average eigenvalue GAMMA=   0.9450
  2.2037  2.2037  0.7605  0.7605  0.4731  0.4281  0.4281  0.3026

 Free energy of the ion-electron system (eV)
  ---------------------------------------------------
  alpha Z        PSCENC =       667.77982703
  Ewald energy   TEWEN  =    144990.07653470
  -Hartree energ DENC   =   -190814.66600133
  -exchange      EXHF   =         0.00000000
  -V(xc)+E(xc)   XCENC  =       574.75480488
  PAW double counting   =     62057.80748705   -60035.32041330
  entropy T*S    EENTRO =        -0.01994171
  eigenvalues    EBANDS =    -10787.51367587
  atomic energy  EATOM  =     52607.98737452
  Solvation  Ediel_sol  =         0.00000000
  ---------------------------------------------------
  free energy    TOTEN  =      -739.11400403 eV

  energy without entropy =     -739.09406231  energy(sigma->0) =     -739.10403317


--------------------------------------------------------------------------------------------------------




--------------------------------------- Iteration      1(  14)  ---------------------------------------


    POTLOK:  cpu time    0.2698: real time    0.2709
    SETDIJ:  cpu time    0.0098: real time    0.0098
     EDDAV:  cpu time   16.1391: real time   16.1818
       DOS:  cpu time    0.0003: real time    0.0003
    CHARGE:  cpu time    0.6632: real time    0.6650
    MIXING:  cpu time    0.0109: real time    0.0109
    --------------------------------------------
      LOOP:  cpu time   17.0930: real time   17.1388

 eigenvalue-minimisations  :  1776
 total energy-change (2. order) : 0.1088894E+00  (-0.5605167E-01)
 number of electron     791.9998868 magnetization 
 augmentation part      -25.5035067 magnetization 

 Broyden mixing:
  rms(total) = 0.14393E+00    rms(broyden)= 0.14378E+00
  rms(prec ) = 0.16249E+00
  weight for this iteration     100.00

 eigenvalues of (default mixing * dielectric matrix)
  average eigenvalue GAMMA=   0.8924
  2.1687  2.1687  0.7799  0.7799  0.6330  0.4207  0.3969  0.3969  0.2869

 Free energy of the ion-electron system (eV)
  ---------------------------------------------------
  alpha Z        PSCENC =       667.77982703
  Ewald energy   TEWEN  =    144990.07653470
  -Hartree energ DENC   =   -190825.53448152
  -exchange      EXHF   =         0.00000000
  -V(xc)+E(xc)   XCENC  =       574.73774798
  PAW double counting   =     62161.66967103   -60139.29783864
  entropy T*S    EENTRO =        -0.03752987
  eigenvalues    EBANDS =    -10776.38641988
  atomic energy  EATOM  =     52607.98737452
  Solvation  Ediel_sol  =         0.00000000
  ---------------------------------------------------
  free energy    TOTEN  =      -739.00511465 eV

  energy without entropy =     -738.96758478  energy(sigma->0) =     -738.98634972


--------------------------------------------------------------------------------------------------------




--------------------------------------- Iteration      1(  15)  ---------------------------------------


    POTLOK:  cpu time    0.2702: real time    0.2723
    SETDIJ:  cpu time    0.0096: real time    0.0096
     EDDAV:  cpu time   16.9415: real time   16.9867
       DOS:  cpu time    0.0003: real time    0.0003
    CHARGE:  cpu time    0.6646: real time    0.6662
    MIXING:  cpu time    0.0115: real time    0.0115
    --------------------------------------------
      LOOP:  cpu time   17.8977: real time   17.9466

 eigenvalue-minimisations  :  1872
 total energy-change (2. order) : 0.6093837E-02  (-0.2107528E-01)
 number of electron     791.9998868 magnetization 
 augmentation part      -25.6140340 magnetization 

 Broyden mixing:
  rms(total) = 0.10007E+00    rms(broyden)= 0.99981E-01
  rms(prec ) = 0.11243E+00
  weight for this iteration     100.00

 eigenvalues of (default mixing * dielectric matrix)
  average eigenvalue GAMMA=   0.8832
  2.1524  2.1524  0.9228  0.9228  0.7083  0.4848  0.4848  0.3972  0.3030  0.3030

 Free energy of the ion-electron system (eV)
  ---------------------------------------------------
  alpha Z        PSCENC =       667.77982703
  Ewald energy   TEWEN  =    144990.07653470
  -Hartree energ DENC   =   -190829.69215584
  -exchange      EXHF   =         0.00000000
  -V(xc)+E(xc)   XCENC  =       574.70109523
  PAW double counting   =     62227.66344105   -60205.71814009
  entropy T*S    EENTRO =        -0.02251000
  eigenvalues    EBANDS =    -10771.77448742
  atomic energy  EATOM  =     52607.98737452
  Solvation  Ediel_sol  =         0.00000000
  ---------------------------------------------------
  free energy    TOTEN  =      -738.99902082 eV

  energy without entropy =     -738.97651082  energy(sigma->0) =     -738.98776582


--------------------------------------------------------------------------------------------------------




--------------------------------------- Iteration      1(  16)  ---------------------------------------


    POTLOK:  cpu time    0.2718: real time    0.2729
    SETDIJ:  cpu time    0.0094: real time    0.0094
     EDDAV:  cpu time   16.3186: real time   16.3617
       DOS:  cpu time    0.0003: real time    0.0003
    CHARGE:  cpu time    0.6475: real time    0.6493
    MIXING:  cpu time    0.0117: real time    0.0118
    --------------------------------------------
      LOOP:  cpu time   17.2593: real time   17.3053

 eigenvalue-minimisations  :  1800
 total energy-change (2. order) : 0.1427902E-02  (-0.8667180E-02)
 number of electron     791.9998869 magnetization 
 augmentation part      -25.5653697 magnetization 

 Broyden mixing:
  rms(total) = 0.76761E-01    rms(broyden)= 0.76695E-01
  rms(prec ) = 0.87208E-01
  weight for this iteration     100.00

 eigenvalues of (default mixing * dielectric matrix)
  average eigenvalue GAMMA=   0.9031
  2.1606  2.1606  1.1954  1.1954  0.6957  0.6957  0.4545  0.3946  0.3946  0.3281
  0.2593

 Free energy of the ion-electron system (eV)
  ---------------------------------------------------
  alpha Z        PSCENC =       667.77982703
  Ewald energy   TEWEN  =    144990.07653470
  -Hartree energ DENC   =   -190838.10351301
  -exchange      EXHF   =         0.00000000
  -V(xc)+E(xc)   XCENC  =       574.79607540
  PAW double counting   =     62272.53340386   -60250.57587080
  entropy T*S    EENTRO =        -0.03954044
  eigenvalues    EBANDS =    -10763.45188418
  atomic energy  EATOM  =     52607.98737452
  Solvation  Ediel_sol  =         0.00000000
  ---------------------------------------------------
  free energy    TOTEN  =      -738.99759291 eV

  energy without entropy =     -738.95805248  energy(sigma->0) =     -738.97782270


--------------------------------------------------------------------------------------------------------




--------------------------------------- Iteration      1(  17)  ---------------------------------------


    POTLOK:  cpu time    0.2721: real time    0.2781
    SETDIJ:  cpu time    0.0093: real time    0.0094
     EDDAV:  cpu time   16.6536: real time   16.7119
       DOS:  cpu time    0.0003: real time    0.0003
    CHARGE:  cpu time    0.6468: real time    0.6484
    MIXING:  cpu time    0.0122: real time    0.0123
    --------------------------------------------
      LOOP:  cpu time   17.5944: real time   17.6603

 eigenvalue-minimisations  :  1848
 total energy-change (2. order) : 0.1535365E-02  (-0.3572059E-02)
 number of electron     791.9998869 magnetization 
 augmentation part      -25.5810583 magnetization 

 Broyden mixing:
  rms(total) = 0.51296E-01    rms(broyden)= 0.51268E-01
  rms(prec ) = 0.59068E-01
  weight for this iteration     100.00

 eigenvalues of (default mixing * dielectric matrix)
  average eigenvalue GAMMA=   0.9414
  2.4215  2.4215  1.3267  1.3267  0.7336  0.7336  0.5186  0.4473  0.4473  0.3479
  0.3119  0.2605

 Free energy of the ion-electron system (eV)
  ---------------------------------------------------
  alpha Z        PSCENC =       667.77982703
  Ewald energy   TEWEN  =    144990.07653470
  -Hartree energ DENC   =   -190850.09862163
  -exchange      EXHF   =         0.00000000
  -V(xc)+E(xc)   XCENC  =       574.90584018
  PAW double counting   =     62305.95847948   -60283.68553835
  entropy T*S    EENTRO =        -0.03271373
  eigenvalues    EBANDS =    -10751.88723975
  atomic energy  EATOM  =     52607.98737452
  Solvation  Ediel_sol  =         0.00000000
  ---------------------------------------------------
  free energy    TOTEN  =      -738.99605755 eV

  energy without entropy =     -738.96334382  energy(sigma->0) =     -738.97970069


--------------------------------------------------------------------------------------------------------




--------------------------------------- Iteration      1(  18)  ---------------------------------------


    POTLOK:  cpu time    0.2708: real time    0.2719
    SETDIJ:  cpu time    0.0094: real time    0.0094
[...]
   -.473E+02 -.301E+02 0.627E+03   0.466E+02 0.294E+02 -.632E+03   0.612E+00 0.720E+00 0.567E+01   0.508E-03 -.307E-02 -.830E-02
   0.650E+01 0.392E+01 0.565E+03   -.630E+01 -.415E+01 -.572E+03   -.210E+00 0.232E+00 0.717E+01   0.215E-02 -.252E-02 -.647E-02
   0.565E+02 -.344E+01 -.678E+03   -.549E+02 0.392E+01 0.683E+03   -.159E+01 -.498E+00 -.480E+01   -.134E-02 0.259E-02 -.568E-02
   -.482E+02 0.160E+01 0.699E+03   0.468E+02 -.114E+01 -.704E+03   0.137E+01 -.460E+00 0.461E+01   0.536E-02 -.257E-02 0.105E-02
   -.639E+02 -.195E+01 -.691E+03   0.626E+02 0.261E+01 0.695E+03   0.129E+01 -.655E+00 -.470E+01   0.560E-03 -.135E-02 0.203E-02
   0.162E+02 -.902E+01 -.565E+03   -.162E+02 0.901E+01 0.572E+03   0.869E-01 0.193E-02 -.702E+01   -.182E-02 0.725E-03 0.768E-02
   -.615E+01 0.273E+02 0.644E+03   0.639E+01 -.262E+02 -.649E+03   -.230E+00 -.109E+01 0.559E+01   -.655E-02 -.243E-02 -.139E-02
   0.129E+02 0.266E+02 -.649E+03   -.134E+02 -.255E+02 0.654E+03   0.436E+00 -.108E+01 -.557E+01   0.283E-02 -.195E-02 0.140E-02
   -.378E+02 -.837E+01 0.648E+03   0.373E+02 0.793E+01 -.653E+03   0.472E+00 0.429E+00 0.534E+01   -.782E-03 0.476E-02 -.437E-02
   -.292E+02 -.124E+02 -.658E+03   0.284E+02 0.121E+02 0.663E+03   0.780E+00 0.281E+00 -.529E+01   0.569E-02 -.241E-02 -.213E-02
   0.379E+02 -.217E+02 0.630E+03   -.371E+02 0.211E+02 -.636E+03   -.844E+00 0.569E+00 0.570E+01   0.791E-02 0.440E-02 -.330E-02
   -.968E+01 -.687E+02 -.663E+03   0.100E+02 0.677E+02 0.668E+03   -.339E+00 0.999E+00 -.502E+01   0.619E-02 0.738E-02 -.247E-02
   -.182E+02 -.637E+02 -.653E+03   0.181E+02 0.624E+02 0.658E+03   0.792E-01 0.131E+01 -.504E+01   -.986E-03 0.561E-02 -.179E-02
   -.193E+02 -.129E+02 -.610E+03   0.180E+02 0.122E+02 0.616E+03   0.126E+01 0.730E+00 -.604E+01   -.291E-02 0.771E-02 0.105E-01
   -.379E+01 0.611E+02 0.643E+03   0.370E+01 -.599E+02 -.649E+03   0.101E+00 -.123E+01 0.564E+01   -.159E-02 0.249E-02 0.376E-02
   -.477E+00 0.577E+02 -.648E+03   0.330E+00 -.562E+02 0.654E+03   0.143E+00 -.146E+01 -.555E+01   0.191E-02 0.946E-03 -.650E-02
   0.193E+02 -.533E+01 0.554E+03   -.191E+02 0.539E+01 -.561E+03   -.188E+00 -.608E-01 0.723E+01   0.167E-02 0.222E-02 0.419E-02
   0.604E+02 0.295E+02 0.684E+03   -.595E+02 -.286E+02 -.688E+03   -.860E+00 -.886E+00 0.439E+01   -.730E-02 0.409E-02 0.127E-02
   0.599E+02 0.350E+02 -.685E+03   -.588E+02 -.345E+02 0.690E+03   -.112E+01 -.565E+00 -.447E+01   0.820E-03 0.756E-03 0.435E-02
   0.141E+02 0.535E+01 -.720E+03   -.137E+02 -.530E+01 0.724E+03   -.360E+00 -.462E-01 -.375E+01   -.473E-04 -.980E-03 -.145E-02
   -.119E+01 0.560E+01 0.738E+03   0.121E+01 -.584E+01 -.742E+03   -.207E-01 0.228E+00 0.335E+01   0.170E-02 0.280E-02 0.333E-02
   0.535E+01 -.302E+01 -.741E+03   -.552E+01 0.284E+01 0.744E+03   0.164E+00 0.187E+00 -.332E+01   0.398E-02 -.210E-02 0.563E-02
   -.409E+02 0.128E+02 0.705E+03   0.407E+02 -.128E+02 -.708E+03   0.226E+00 0.766E-01 0.367E+01   -.253E-02 0.590E-02 0.146E-03
   0.811E+02 -.211E+02 0.628E+03   -.802E+02 0.202E+02 -.633E+03   -.881E+00 0.903E+00 0.565E+01   -.117E-02 0.199E-02 -.737E-02
   -.810E+01 -.214E+02 0.736E+03   0.799E+01 0.211E+02 -.739E+03   0.116E+00 0.260E+00 0.231E+01   0.367E-02 0.335E-03 0.207E-02
   0.175E+01 -.367E+02 -.733E+03   -.193E+01 0.366E+02 0.735E+03   0.174E+00 0.382E-01 -.234E+01   0.147E-02 -.745E-03 0.845E-03
   -.656E+02 0.622E+01 0.687E+03   0.649E+02 -.630E+01 -.690E+03   0.737E+00 0.721E-01 0.259E+01   -.804E-03 0.263E-02 0.125E-02
   -.570E+02 0.146E+01 -.694E+03   0.563E+02 -.143E+01 0.696E+03   0.712E+00 -.337E-01 -.261E+01   -.309E-02 0.699E-03 -.692E-02
   0.183E+02 0.438E+01 0.619E+03   -.182E+02 -.465E+01 -.622E+03   -.710E-01 0.277E+00 0.341E+01   -.287E-02 -.231E-04 -.419E-02
   0.585E+02 -.286E+02 -.691E+03   -.579E+02 0.282E+02 0.694E+03   -.521E+00 0.437E+00 -.280E+01   -.167E-02 0.564E-03 -.363E-02
   -.319E+01 -.253E+02 -.756E+03   0.339E+01 0.255E+02 0.758E+03   -.206E+00 -.164E+00 -.236E+01   0.465E-02 -.307E-02 0.186E-02
   -.519E+02 -.381E+02 0.684E+03   0.513E+02 0.377E+02 -.687E+03   0.565E+00 0.416E+00 0.291E+01   0.216E-03 0.116E-02 0.427E-02
   0.273E+02 -.499E+02 0.678E+03   -.268E+02 0.495E+02 -.681E+03   -.478E+00 0.420E+00 0.294E+01   0.119E-02 -.281E-02 0.423E-02
   -.891E+01 -.560E+02 0.712E+03   0.899E+01 0.555E+02 -.714E+03   -.846E-01 0.461E+00 0.264E+01   0.390E-02 -.134E-02 -.649E-04
   -.302E+02 -.242E+02 -.684E+03   0.296E+02 0.238E+02 0.687E+03   0.580E+00 0.420E+00 -.281E+01   -.366E-04 0.183E-02 -.444E-02
   0.903E+01 0.199E+01 -.636E+03   -.888E+01 -.204E+01 0.639E+03   -.140E+00 0.539E-01 -.343E+01   -.131E-02 -.618E-03 -.297E-02
   0.629E+02 -.167E+00 0.708E+03   -.623E+02 0.242E+00 -.711E+03   -.522E+00 -.758E-01 0.265E+01   -.242E-02 -.153E-03 -.499E-02
   -.266E+02 0.200E+02 0.653E+03   0.264E+02 -.197E+02 -.656E+03   0.195E+00 -.335E+00 0.302E+01   -.256E-02 -.889E-03 0.324E-02
   -.310E+02 0.203E+02 -.641E+03   0.309E+02 -.200E+02 0.644E+03   0.638E-01 -.266E+00 -.308E+01   -.885E-03 0.101E-02 0.805E-02
   0.613E+01 -.969E+01 0.629E+03   -.606E+01 0.985E+01 -.632E+03   -.773E-01 -.159E+00 0.334E+01   0.150E-02 -.117E-03 0.307E-02
   0.263E+02 -.188E+02 -.682E+03   -.258E+02 0.187E+02 0.685E+03   -.520E+00 0.117E+00 -.283E+01   -.227E-02 0.325E-02 -.151E-02
   0.316E+01 -.607E+02 0.705E+03   -.316E+01 0.605E+02 -.708E+03   -.631E-02 0.271E+00 0.270E+01   -.352E-02 0.188E-02 0.149E-02
   -.131E+02 -.643E+02 0.698E+03   0.130E+02 0.639E+02 -.701E+03   0.966E-01 0.397E+00 0.275E+01   -.159E-02 0.229E-02 0.276E-02
   -.153E+02 -.187E+02 0.660E+03   0.148E+02 0.185E+02 -.663E+03   0.500E+00 0.120E+00 0.305E+01   0.486E-03 0.238E-02 0.202E-02
   0.298E+02 0.260E+02 0.695E+03   -.294E+02 -.257E+02 -.697E+03   -.407E+00 -.349E+00 0.266E+01   0.108E-02 0.901E-03 0.994E-03
   0.424E+02 0.298E+02 -.692E+03   -.422E+02 -.295E+02 0.695E+03   -.198E+00 -.271E+00 -.270E+01   -.680E-03 0.484E-02 0.389E-02
   -.336E+02 0.336E+02 0.687E+03   0.332E+02 -.332E+02 -.690E+03   0.416E+00 -.397E+00 0.286E+01   0.321E-02 0.175E-02 -.126E-02
   -.295E+02 0.313E+02 -.687E+03   0.290E+02 -.308E+02 0.690E+03   0.507E+00 -.474E+00 -.285E+01   0.215E-02 -.235E-02 0.123E-02
   -.141E+02 0.517E+02 0.647E+03   0.141E+02 -.509E+02 -.650E+03   0.123E-01 -.810E+00 0.318E+01   -.940E-04 -.176E-02 -.212E-02
   -.158E+02 0.532E+02 -.650E+03   0.158E+02 -.525E+02 0.653E+03   -.414E-01 -.762E+00 -.316E+01   -.216E-02 0.179E-02 -.194E-02
   -.227E+02 0.248E+02 0.642E+03   0.227E+02 -.242E+02 -.645E+03   -.628E-02 -.631E+00 0.310E+01   0.393E-03 0.128E-02 0.950E-03
   -.244E+02 0.325E+02 -.643E+03   0.244E+02 -.322E+02 0.646E+03   0.264E-01 -.297E+00 -.312E+01   0.124E-02 -.139E-02 -.208E-02
   0.153E+02 0.586E+01 -.613E+03   -.152E+02 -.610E+01 0.616E+03   -.838E-01 0.236E+00 -.352E+01   -.999E-03 0.432E-03 0.120E-02
   0.200E+02 0.461E+01 0.757E+03   -.199E+02 -.449E+01 -.760E+03   -.750E-01 -.114E+00 0.224E+01   0.757E-03 -.184E-02 -.206E-02
   -.520E+01 -.228E+02 0.706E+03   0.523E+01 0.221E+02 -.708E+03   -.301E-01 0.636E+00 0.280E+01   -.116E-02 -.367E-02 0.138E-02
   -.453E+01 -.268E+02 -.701E+03   0.449E+01 0.262E+02 0.704E+03   0.520E-01 0.611E+00 -.280E+01   -.212E-02 0.943E-03 -.276E-02
   -.332E+02 0.110E+02 -.752E+03   0.330E+02 -.110E+02 0.754E+03   0.205E+00 -.361E-01 -.222E+01   -.333E-02 0.180E-02 -.381E-03
   -.474E+02 -.116E+02 0.641E+03   0.471E+02 0.111E+02 -.644E+03   0.324E+00 0.459E+00 0.300E+01   -.337E-02 0.273E-02 -.206E-02
   -.476E+02 -.108E+02 -.648E+03   0.472E+02 0.104E+02 0.651E+03   0.331E+00 0.368E+00 -.300E+01   0.123E-02 -.150E-03 -.291E-02
   0.674E+02 -.953E+01 -.679E+03   -.669E+02 0.923E+01 0.682E+03   -.440E+00 0.299E+00 -.285E+01   -.277E-02 -.518E-03 0.133E-03
 -----------------------------------------------------------------------------------------------
   0.160E+01 0.756E+01 0.658E+01   0.369E-12 -.757E-12 -.796E-12   -.162E+01 -.764E+01 -.658E+01   0.170E-01 0.182E-01 0.227E-01
 
 
 POSITION                                       TOTAL-FORCE (eV/Angst)
 -----------------------------------------------------------------------------------
      9.63625    -16.22852     11.74725         0.004794     -0.004588      0.002743
      1.58954     -1.05052     11.69342         0.000259      0.002307     -0.000907
     -6.44677    -16.23834     11.68589        -0.001536      0.004016      0.000985
      7.99630     -1.05655     11.67934        -0.005336      0.007067     -0.002525
      0.02008    -16.09997     11.62150        -0.004920      0.013953      0.000091
     11.34786     -1.05224     11.71474         0.002962     -0.005931      0.001966
      3.31073    -16.05357     11.70031        -0.003635      0.001122     -0.000954
     11.34232    -13.18863     11.68588         0.003885     -0.001415      0.004622
      9.64659    -10.15877     11.70401        -0.005880     -0.000867     -0.002832
     12.96027    -10.19889     11.63620        -0.001065     -0.001711      0.003252
     -3.15690    -10.08503     11.62500         0.001680     -0.002511     -0.001829
      3.32051    -10.21045     11.70199         0.005709     -0.009133      0.000298
      1.58820     -7.18360     11.67403        -0.000345      0.002359      0.002061
      3.20761     -4.04377     11.66731        -0.003357     -0.003444      0.000900
      6.49862     -4.11870     11.69075         0.001685      0.012363     -0.003911
      9.69088     -4.04752     11.71903         0.002474     -0.012888     -0.003000
     12.98329     -4.09904     11.73321         0.000682      0.002283     -0.003853
     -0.07894     -4.11220     11.70068         0.003917      0.003318     -0.003436
     17.80065     -0.98190     11.71710         0.004441      0.000965      0.001947
      4.79528     -0.94562     11.66628         0.002009      0.010209     -0.000015
     -3.25298    -16.09705     11.61320         0.002862      0.003855     -0.003036
     14.63119     -0.89303     11.71347         0.003512     -0.001931     -0.003298
      6.49680    -15.95054     11.76381         0.001556     -0.003410      0.003907
      8.06364    -13.11363     11.76317        -0.005872      0.000730      0.001050
     -4.85695    -13.15413     11.63198        -0.000014      0.002371     -0.003154
     -1.61581    -13.16416     11.59653         0.001146     -0.001055     -0.004840
      1.68407    -13.12260     11.63929         0.001298      0.002942     -0.002749
      4.85779    -13.09754     11.75257        -0.002028      0.002199      0.002751
      6.44508    -10.01498     11.74866        -0.006486      0.000597      0.001580
      0.04790    -10.16282     11.63344         0.002613     -0.006609     -0.000356
      4.93782     -7.19810     11.70588        -0.003557     -0.000252     -0.002986
      8.03821     -7.16719     11.71967         0.004514      0.003302     -0.001195
     11.31377     -7.20564     11.67944        -0.000295      0.000890     -0.002265
     14.58274     -7.12315     11.67807        -0.005461     -0.003290      0.000446
     -1.58965     -7.03419     11.67770        -0.003720     -0.005943     -0.004056
     16.18221     -3.88787     11.73106         0.000936     -0.006424      0.004609
     -0.02682     -0.03550     10.16487        -0.001765     -0.004535     -0.001472
     -0.01442     -0.06642     13.27424         0.008243     -0.002274      0.004621
      3.20868     -0.05854     10.11627         0.000634      0.003701     -0.005108
      3.23798     -0.06153     13.24670        -0.007245      0.006129      0.000525
      6.37970      0.05251     10.15895        -0.003622     -0.002798     -0.008940
      6.37365      0.10867     13.14487         0.001765      0.006992      0.002952
     16.22785      0.15086     13.14210        -0.002552     -0.001770      0.005796
      8.07373    -15.01936     10.25529         0.004669     -0.006727      0.001948
     -8.12299    -15.19726     10.17819        -0.002718     -0.006945     -0.001505
     -4.80490    -15.09365     13.13248         0.003367      0.002584     -0.008263
     -1.65728    -15.07954     13.09381        -0.001507      0.002260     -0.003877
      1.60362    -15.00814     13.16907        -0.001626      0.009428     -0.004261
      4.95882    -14.98313     10.22209        -0.004006      0.004071      0.008516
      6.47521    -12.01598     10.33577        -0.006111      0.003010      0.003038
      9.71510    -12.16938     13.22395        -0.001231     -0.006409      0.003118
     -6.44121    -12.16633     10.10284        -0.004181      0.003100     -0.001570
     -6.39418    -12.14246     13.20251        -0.001375      0.003289      0.003479
     -0.00162    -12.14261     13.04428         0.000670     -0.003355      0.002578
      3.32278    -12.19188     10.16262         0.013155     -0.001770     -0.003764
      3.21865    -12.19625     13.23511        -0.008288      0.001206      0.001162
      4.91533     -9.08672     10.18174         0.003413     -0.009138     -0.007418
      4.87022     -9.06297     13.25454        -0.007839      0.003205      0.007521
      8.02264     -9.07551     10.21586        -0.004487     -0.001468      0.003156
     11.34333     -9.12372     13.18329        -0.001333     -0.001212     -0.002553
     -4.78365     -9.04594     13.15432         0.004855     -0.006767     -0.001754
     -1.50563     -9.03927     13.10276        -0.001490     -0.003067     -0.003809
      6.48440     -6.15453     10.19449         0.006648     -0.003792     -0.002759
      6.47331     -6.12573     13.21288        -0.001396     -0.000734      0.005538
     -3.21776     -5.89428     10.32700        -0.009663      0.005376      0.002845
     -0.04418     -6.08019     10.14862         0.005587     -0.006148     -0.001398
     -0.03036     -6.12292     13.22584        -0.003487     -0.001273     -0.002838
      1.57909     -3.08074     13.22303        -0.006561      0.002561     -0.003479
      8.08544     -3.07088     10.12677         0.000945     -0.004691     -0.003327
      8.05478     -3.04554     13.26393         0.002285      0.006008     -0.001293
     11.35697     -3.07362     10.19211         0.005700     -0.004117      0.000229
     -1.64168     -2.90178     10.23058        -0.005567      0.003726      0.005636
      9.67989     -0.04095      9.96594         0.001161      0.002755      0.005701
      9.64689      0.04352     13.37778        -0.002526      0.007601     -0.003227
     12.98318      0.02245     10.02848        -0.001604     -0.005778     -0.000146
     12.98033      0.03983     13.39348         0.004707     -0.003710      0.002037
     16.23022      0.18490     10.10616         0.004404      0.005617      0.006095
      8.10683    -15.04209     13.46694         0.002935     -0.001632      0.006218
     -8.04358    -15.16816     13.45005         0.003356      0.003126      0.000345
     -4.88200    -15.11730      9.95380         0.000970      0.002868     -0.006332
     -1.64587    -15.11551      9.92019         0.001731      0.003774     -0.005903
      1.69298    -15.03558      9.92533        -0.002888     -0.003017     -0.004201
      4.87872    -15.01403     13.46116        -0.001813     -0.003765      0.009990
      6.46561    -12.00374     13.38683         0.001595      0.003389      0.005454
      9.64144    -12.19365      9.99520        -0.000588     -0.000675      0.003075
     -3.25163    -12.14467      9.97282         0.002202     -0.002554     -0.007821
     -3.21307    -12.15869     13.27410         0.003827     -0.001150     -0.003922
      0.03976    -12.12249      9.99107        -0.001333      0.001450     -0.013794
      8.06985     -9.06155     13.44070        -0.004064     -0.001453      0.006118
     11.27715     -9.11062      9.95746        -0.003672      0.001630     -0.002500
     -4.80012     -9.00231      9.93273         0.001465      0.002178     -0.002634
     -1.50036     -8.99090      9.98245         0.000463      0.000387     -0.007707
      1.67702     -9.19269      9.96769         0.004561     -0.002716     -0.000138
      1.60520     -9.21043     13.37445         0.003362     -0.010841     -0.002032
      3.31458     -6.14099     10.03093         0.000646      0.001297      0.001832
      3.28743     -6.12599     13.33543         0.001247      0.003907     -0.001469
      9.66896     -6.12926     10.07701        -0.004688      0.002716      0.005240
      9.69878     -6.14482     13.33369         0.004783     -0.003399      0.006910
     12.93253     -6.13859     10.05490         0.000080      0.002758     -0.001701
     12.93253     -6.20955     13.33916        -0.003946      0.001624      0.006316
     -3.21773     -5.95152     13.29440        -0.001471     -0.003644     -0.001277
      1.54372     -3.07172      9.93599        -0.000303      0.002317     -0.002475
      4.87008     -2.95182     10.01210         0.001286      0.010326      0.005197
      4.84837     -2.93788     13.33617         0.006306      0.004613      0.005873
     11.33735     -3.06536     13.47205         0.000661     -0.003027      0.004618
     14.58813     -2.89123     10.07831         0.006360     -0.008162      0.001507
     14.58262     -2.87346     13.36580        -0.007485     -0.002028      0.005395
     -1.61277     -2.90305     13.41462         0.004964      0.000116      0.004077
 -----------------------------------------------------------------------------------
    total drift:                               -0.003528     -0.056264      0.022317


--------------------------------------------------------------------------------------------------------



  FREE ENERGIE OF THE ION-ELECTRON SYSTEM (eV)
  ---------------------------------------------------
  free  energy   TOTEN  =      -760.19334502 eV

  energy  without entropy=     -760.18304027  energy(sigma->0) =     -760.18819265
 
 d Force = 0.6335029E-03[ 0.394E-03, 0.873E-03]  d Energy = 0.5819370E-03 0.516E-04
 d Force = 0.6313500E+01[ 0.632E+01, 0.631E+01]  d Ewald  =-0.1851053E+02 0.248E+02


--------------------------------------------------------------------------------------------------------


    POTLOK:  cpu time    0.2840: real time    0.2848


--------------------------------------------------------------------------------------------------------


 Conjugate gradient step on ions:
 trial-energy change:   -0.000582  1 .order   -0.000669   -0.000909   -0.000429
  (g-gl).g = 0.467E-03      g.g   = 0.820E-03  gl.gl    = 0.142E-02
 g(Force)  = 0.786E-03   g(Stress)= 0.340E-04 ortho     = 0.106E-03
 gamma     =   0.32890
 trial     =   1.06300
 opt step  =   2.01191  (harmonic =   2.01191) maximal distance =0.00293636
 next E    =  -760.193623   (d E  =  -0.00086)


--------------------------------------------------------------------------------------------------------


  
 reached required accuracy - stopping structural energy minimisation
     LOOP+:  cpu time   81.3973: real time   81.6404
    4ORBIT:  cpu time    0.0000: real time    0.0000

 total amount of memory used by VASP MPI-rank0   180714. kBytes
=======================================================================

   base      :      30000. kBytes
   nonlr-proj:      32286. kBytes
   fftplans  :      15274. kBytes
   grid      :      64020. kBytes
   one-center:       1679. kBytes
   wavefun   :      37455. kBytes
 
  
  
 General timing and accounting informations for this job:
 ========================================================
  
                  Total CPU time used (sec):     7089.039
                            User time (sec):     7068.214
                          System time (sec):       20.824
                         Elapsed time (sec):     7111.495
  
                   Maximum memory used (kb):      308176.
                   Average memory used (kb):           0.
  
                          Minor page faults:      1456804
                          Major page faults:            0
                 Voluntary context switches:         5870
