64
Lattice="7.14385 0.0 0.0 0.0 7.14385 0.0 0.0 0.0 7.14385" Properties=species:S:1:pos:R:3:force:R:3 Energy=-9902.05591 energy=0.0 pbc="T T T"
C        0.01904600       0.01053700       0.00147900      -0.45980000       0.01096000       0.26553000
C        0.01951700       1.78834100       1.78837000      -0.48880000       0.61172000       0.30275000
C        1.78658400       0.00760100       1.80559400       0.41194000       0.22137000      -0.68006000
C        1.79584200       1.80222200       0.00993700       0.11280000      -0.24181000      -0.12961000
C        2.69619600       0.89786000       2.67939400      -0.43906000       0.15733000       0.43488000
C        0.89783900       0.91066900       0.89406000       0.32074000      -0.34087000       0.20058000
C        0.90966900       2.69319600       2.68175800      -0.14733000       0.00426000       0.25814000
C        2.69521700       2.68650900       0.91084800      -0.31100000       0.20581000      -0.38123000
C        3.58450500       0.00497900       0.00931600      -0.14871000       0.05109000       0.10354000
C        3.57196800       1.79102000       1.79717800       0.56115000       0.18569000      -0.21237000
C        5.36548100       0.01534500       1.79585000       0.04104000      -0.14474000       0.07575000
C        5.37597600       1.78696300       0.00135700      -0.47855000       0.62196000       0.38248000
C        6.26447800       0.90669000       2.69689600      -0.04559000      -0.26000000      -0.33723000
C        4.47247900       0.90539000       0.89875300       0.06363000      -0.10605000       0.11296000
C        4.47754400       2.69387400       2.68432300      -0.22025000      -0.44983000       0.22934000
C        6.25573400       2.69848900       0.90486900       0.23615000      -0.63290000      -0.13879000
C        0.01143000       3.57960500       0.00951600      -0.18338000       0.07715000      -0.03231000
C        0.01963100       5.36308800       1.79332800      -0.36009000       0.11574000      -0.05146000
C        1.80295800       3.58947700       1.79907100      -0.12632000      -0.30682000      -0.19995000
C        1.79163500       5.37401100       0.01876700       0.07714000      -0.50882000      -0.34539000
C        2.69259600       4.47412900       2.69135300       0.06293000       0.05804000      -0.12973000
C        0.90014700       4.46672800       0.89863900       0.23332000       0.32255000       0.17257000
C        0.91272000       6.26215600       2.68304400      -0.41359000      -0.18292000       0.26860000
C        2.68062300       6.25461900       0.90176100       0.31758000       0.21897000       0.31721000
C        3.57693300       3.58256200       0.00054300       0.24494000      -0.01777000       0.48033000
C        3.58814900       5.36498800       1.80348600      -0.28968000       0.03884000      -0.42319000
C        5.35957300       3.57821900       1.79816400       0.44293000       0.26688000      -0.23153000
C        5.36851000       5.37242500       0.00407200       0.23252000      -0.05528000       0.22666000
C        6.26687800       4.47522200       2.68934500      -0.09745000       0.05966000       0.02147000
C        4.47968000       4.48071600       0.89406000      -0.24762000      -0.16942000       0.25953000
C        4.46774200       6.25496200       2.69618900       0.52638000       0.22307000      -0.45992000
C        6.25962700       6.26443500       0.90184000       0.24738000      -0.06277000       0.03034000
C        0.00700800       0.00105000       3.58288400       0.21876000       0.38696000       0.01426000
C        0.00957300       1.80198600       5.36922500      -0.12153000      -0.23479000      -0.12076000
C        1.79770700       0.01357300       5.37149700       0.11446000      -0.09096000      -0.32964000
C        1.78887700       1.80487900       3.57935500       0.50521000      -0.30113000       0.04896000
C        2.69705300       0.89481000       6.25243300      -0.22054000       0.28072000       0.51858000
C        0.90578300       0.91114800       4.47403600      -0.22448000      -0.29088000       0.02383000
C        0.89623900       2.68914500       6.25182600       0.32231000       0.02110000       0.41225000
C        2.69026000       2.69124500       4.47967300       0.02472000      -0.23982000      -0.20895000
C        3.59055600       0.00632200       3.57268200      -0.25785000       0.20343000       0.37258000
C        3.58758400       1.78751300       5.37697600      -0.17705000       0.38387000      -0.61324000
C        5.37160400       0.01701000       5.37273200      -0.19777000      -0.28808000      -0.30445000
C        5.36721000       1.78885600       3.59067800       0.15157000       0.53680000      -0.35152000
C        6.25607700       0.90038900       6.26113400       0.47969000       0.14470000      -0.15816000
C        4.47629400       0.90542600       4.46972100       0.03067000      -0.16675000       0.28333000
C        4.46987800       2.69889700       6.25606900       0.37544000      -0.49018000       0.15631000
C        6.25725500       2.68928800       4.48008700       0.20208000       0.17084000      -0.06586000
C        0.01821700       3.59173500       3.59179200      -0.35144000      -0.45995000      -0.49312000
C        0.01770200       5.36241700       5.36502400      -0.30706000       0.31377000       0.09962000
C        1.80185800       3.57988300       5.37294700      -0.33433000       0.13434000      -0.29362000
C        1.80447900       5.37181800       3.57412500      -0.09357000      -0.02251000       0.30931000
C        2.68252300       4.46619900       6.26281300       0.07488000       0.49435000       0.03040000
C        0.90333300       4.47985800       4.47351500       0.38489000      -0.03976000       0.06497000
C        0.90551900       6.25927700       6.26548500       0.02170000       0.08848000      -0.28666000
C        2.69721100       6.26709200       4.47012800      -0.25371000      -0.19801000       0.12674000
C        3.58520500       3.57951900       3.57381800      -0.10416000      -0.03423000       0.46213000
C        3.57971200       5.36426700       5.36691000       0.09979000       0.14275000       0.08327000
C        5.37269000       3.59164900       5.37068900      -0.35286000      -0.39172000      -0.15224000
C        5.37424000       5.37225400       3.57456800      -0.40334000      -0.26960000       0.37520000
C        6.26287800       4.47317200       6.25992700       0.09853000       0.22271000       0.00347000
C        4.46660600       4.46687800       4.47795100       0.49522000       0.42550000      -0.25951000
C        4.48335200       6.26556400       6.26740700      -0.34425000      -0.25462000      -0.37266000
C        6.25194000       6.26361300       4.47106400       0.46868000      -0.14842000       0.23525000
