 vasp.5.4.4.18Apr17-6-g9f103f2a35 (build Nov 11 2021 15:59:34) complex          
  
 executed on             LinuxIFC date 2022.02.09  06:47:33
 running on   24 total cores
 distrk:  each k-point on   24 cores,    1 groups
 distr:  one band on NCORES_PER_BAND=   1 cores,   24 groups


--------------------------------------------------------------------------------------------------------


 INCAR:
 POTCAR:    PAW_PBE Re 17Jan2003                  
 POTCAR:    PAW_PBE Nb_sv 25May2007               
 POTCAR:    PAW_PBE S 06Sep2000                   
 POTCAR:    PAW_PBE Se 06Sep2000                  

 ----------------------------------------------------------------------------- 
|                                                                             |
|           W    W    AA    RRRRR   N    N  II  N    N   GGGG   !!!           |
|           W    W   A  A   R    R  NN   N  II  NN   N  G    G  !!!           |
|           W    W  A    A  R    R  N N  N  II  N N  N  G       !!!           |
|           W WW W  AAAAAA  RRRRR   N  N N  II  N  N N  G  GGG   !            |
|           WW  WW  A    A  R   R   N   NN  II  N   NN  G    G                |
|           W    W  A    A  R    R  N    N  II  N    N   GGGG   !!!           |
|                                                                             |
|      For optimal performance we recommend to set                            |
|        NCORE= 4 - approx SQRT( number of cores)                             |
|      NCORE specifies how many cores store one orbital (NPAR=cpu/NCORE).     |
|      This setting can  greatly improve the performance of VASP for DFT.     |
|      The default,   NCORE=1            might be grossly inefficient         |
|      on modern multi-core architectures or massively parallel machines.     |
|      Do your own testing !!!!                                               |
|      Unfortunately you need to use the default for GW and RPA calculations. |
|      (for HF NCORE is supported but not extensively tested yet)             |
|                                                                             |
 ----------------------------------------------------------------------------- 

 POTCAR:    PAW_PBE Re 17Jan2003                  
   VRHFIN =Re: 5p6s5d                                                           
   LEXCH  = PE                                                                  
   EATOM  =   299.6589 eV,   22.0243 Ry                                         
                                                                                
   TITEL  = PAW_PBE Re 17Jan2003                                                
   LULTRA =        F    use ultrasoft PP ?                                      
   IUNSCR =        1    unscreen: 0-lin 1-nonlin 2-no                           
   RPACOR =    2.250    partial core radius                                     
   POMASS =  186.207; ZVAL   =    7.000    mass and valenz                      
   RCORE  =    2.700    outmost cutoff radius                                   
   RWIGS  =    2.710; RWIGS  =    1.434    wigner-seitz radius (au A)           
   ENMAX  =  226.216; ENMIN  =  169.662 eV                                      
   RCLOC  =    2.105    cutoff for local pot                                    
   LCOR   =        T    correct aug charges                                     
   LPAW   =        T    paw PP                                                  
   EAUG   =  370.280                                                            
   DEXC   =    0.000                                                            
   RMAX   =    2.768    core radius for proj-oper                               
   RAUG   =    1.300    factor for augmentation sphere                          
   RDEP   =    2.719    radius for radial grids                                 
   RDEPT  =    2.204    core radius for aug-charge                              
                                                                                
   Atomic configuration                                                         
   16 entries                                                                   
     n  l   j            E        occ.                                          
     1  0  0.50    -71633.0043   2.0000                                         
     2  0  0.50    -12416.1215   2.0000                                         
     2  1  1.50    -10832.4223   6.0000                                         
     3  0  0.50     -2872.9330   2.0000                                         
     3  1  1.50     -2406.1720   6.0000                                         
     3  2  2.50     -1877.8916  10.0000                                         
     4  0  0.50      -597.8463   2.0000                                         
     4  1  1.50      -444.8000   6.0000                                         
     4  2  2.50      -252.9938  10.0000                                         
     4  3  3.50       -40.1243  14.0000                                         
     5  0  0.50       -83.0609   2.0000                                         
     5  1  1.50       -44.9781   6.0000                                         
     5  2  2.50        -4.0055   6.0000                                         
     6  0  0.50        -5.2962   1.0000                                         
     6  1  1.50        -2.7212   0.0000                                         
     5  3  2.50        -1.3606   0.0000                                         
   Description                                                                  
     l       E           TYP  RCUT    TYP  RCUT                                 
     2     -4.0054887     23  2.500                                             
     2     -2.6236470     23  2.500                                             
     0     -5.2961782     23  2.600                                             
     0      4.1641227     23  2.600                                             
     1     -2.7211652     23  2.700                                             
     1     27.2116520     23  2.700                                             
  local pseudopotential read in
  partial core-charges read in
  partial kinetic energy density read in
  kinetic energy density of atom read in
  atomic valenz-charges read in
  non local Contribution for L=           2  read in
    real space projection operators read in
  non local Contribution for L=           2  read in
    real space projection operators read in
  non local Contribution for L=           0  read in
    real space projection operators read in
  non local Contribution for L=           0  read in
    real space projection operators read in
  non local Contribution for L=           1  read in
    real space projection operators read in
  non local Contribution for L=           1  read in
    real space projection operators read in
    PAW grid and wavefunctions read in
 
   number of l-projection  operators is LMAX  =           6
   number of lm-projection operators is LMMAX =          18
 
 POTCAR:    PAW_PBE Nb_sv 25May2007               
   VRHFIN =Nb: 4p5s4d                                                           
   LEXCH  = PE                                                                  
   EATOM  =  1555.1913 eV,  114.3033 Ry                                         
                                                                                
   TITEL  = PAW_PBE Nb_sv 25May2007                                             
   LULTRA =        F    use ultrasoft PP ?                                      
   IUNSCR =        1    unscreen: 0-lin 1-nonlin 2-no                           
   RPACOR =    1.800    partial core radius                                     
   POMASS =   92.910; ZVAL   =   13.000    mass and valenz                      
   RCORE  =    2.400    outmost cutoff radius                                   
   RWIGS  =    2.400; RWIGS  =    1.270    wigner-seitz radius (au A)           
   ENMAX  =  293.235; ENMIN  =  219.927 eV                                      
   ICORE  =        3    local potential                                         
   LCOR   =        T    correct aug charges                                     
   LPAW   =        T    paw PP                                                  
   EAUG   =  455.659                                                            
   DEXC   =    0.000                                                            
   RMAX   =    2.456    core radius for proj-oper                               
   RAUG   =    1.300    factor for augmentation sphere                          
   RDEP   =    2.451    radius for radial grids                                 
   RDEPT  =    1.956    core radius for aug-charge                              
                                                                                
   Atomic configuration                                                         
   11 entries                                                                   
     n  l   j            E        occ.                                          
     1  0  0.50    -18805.2457   2.0000                                         
     2  0  0.50     -2630.2869   2.0000                                         
     2  1  1.50     -2348.4046   6.0000                                         
     3  0  0.50      -438.8757   2.0000                                         
     3  1  1.50      -346.7588   6.0000                                         
     3  2  2.50      -196.2560  10.0000                                         
     4  0  0.50       -58.3859   2.0000                                         
     5  0  0.50        -3.9816   1.0000                                         
     4  1  1.50       -34.5141   6.0000                                         
     4  2  2.50        -3.0408   4.0000                                         
     4  3  2.50        -1.3606   0.0000                                         
   Description                                                                  
     l       E           TYP  RCUT    TYP  RCUT                                 
     0    -58.3859094     23  2.200                                             
     0     -3.9816262     23  2.200                                             
     1    -34.5140738     23  2.200                                             
     1     13.6058260     23  2.200                                             
     2     -3.0408010     23  2.200                                             
     2     -0.1283038     23  2.200                                             
     3     -1.3605826     23  2.400                                             
  local pseudopotential read in
  partial core-charges read in
  partial kinetic energy density read in
  atomic valenz-charges read in
  non local Contribution for L=           0  read in
    real space projection operators read in
  non local Contribution for L=           0  read in
    real space projection operators read in
  non local Contribution for L=           1  read in
    real space projection operators read in
  non local Contribution for L=           1  read in
    real space projection operators read in
  non local Contribution for L=           2  read in
    real space projection operators read in
  non local Contribution for L=           2  read in
    real space projection operators read in
    PAW grid and wavefunctions read in
 
   number of l-projection  operators is LMAX  =           6
   number of lm-projection operators is LMMAX =          18
 
 POTCAR:    PAW_PBE S 06Sep2000                   
   VRHFIN =S : s2p4                                                             
   LEXCH  = PE                                                                  
   EATOM  =   276.8230 eV,   20.3459 Ry                                         
                                                                                
   TITEL  = PAW_PBE S 06Sep2000                                                 
   LULTRA =        F    use ultrasoft PP ?                                      
   IUNSCR =        1    unscreen: 0-lin 1-nonlin 2-no                           
   RPACOR =    1.500    partial core radius                                     
   POMASS =   32.066; ZVAL   =    6.000    mass and valenz                      
   RCORE  =    1.900    outmost cutoff radius                                   
   RWIGS  =    2.200; RWIGS  =    1.164    wigner-seitz radius (au A)           
   ENMAX  =  258.689; ENMIN  =  194.016 eV                                      
   ICORE  =        2    local potential                                         
   LCOR   =        T    correct aug charges                                     
   LPAW   =        T    paw PP                                                  
   EAUG   =  335.092                                                            
   DEXC   =    0.000                                                            
   RMAX   =    1.942    core radius for proj-oper                               
   RAUG   =    1.300    factor for augmentation sphere                          
   RDEP   =    1.954    radius for radial grids                                 
   RDEPT  =    1.744    core radius for aug-charge                              
                                                                                
   Atomic configuration                                                         
    6 entries                                                                   
     n  l   j            E        occ.                                          
     1  0  0.50     -2405.8406   2.0000                                         
     2  0  0.50      -211.7007   2.0000                                         
     2  1  1.50      -156.4958   6.0000                                         
     3  0  0.50       -17.2562   2.0000                                         
     3  1  0.50        -7.0085   4.0000                                         
     3  2  1.50        -6.8029   0.0000                                         
   Description                                                                  
     l       E           TYP  RCUT    TYP  RCUT                                 
     0    -17.2561641     23  1.900                                             
     0    -15.8743224     23  1.900                                             
     1     -7.0085400     23  1.900                                             
     1     -2.7779785     23  1.900                                             
     2     -6.8029130     23  1.900                                             
  local pseudopotential read in
  partial core-charges read in
  partial kinetic energy density read in
  atomic valenz-charges read in
  non local Contribution for L=           0  read in
    real space projection operators read in
  non local Contribution for L=           0  read in
    real space projection operators read in
  non local Contribution for L=           1  read in
    real space projection operators read in
  non local Contribution for L=           1  read in
    real space projection operators read in
    PAW grid and wavefunctions read in
 
   number of l-projection  operators is LMAX  =           4
   number of lm-projection operators is LMMAX =           8
 
 POTCAR:    PAW_PBE Se 06Sep2000                  
   VRHFIN =Se: s2p4                                                             
   LEXCH  = PE                                                                  
   EATOM  =   257.1286 eV,   18.8984 Ry                                         
                                                                                
   TITEL  = PAW_PBE Se 06Sep2000                                                
   LULTRA =        F    use ultrasoft PP ?                                      
   IUNSCR =        1    unscreen: 0-lin 1-nonlin 2-no                           
   RPACOR =    1.900    partial core radius                                     
   POMASS =   78.960; ZVAL   =    6.000    mass and valenz                      
   RCORE  =    2.100    outmost cutoff radius                                   
   RWIGS  =    2.200; RWIGS  =    1.164    wigner-seitz radius (au A)           
   ENMAX  =  211.555; ENMIN  =  158.666 eV                                      
   ICORE  =        3    local potential                                         
   LCOR   =        T    correct aug charges                                     
   LPAW   =        T    paw PP                                                  
   EAUG   =  446.842                                                            
   DEXC   =    0.000                                                            
   RMAX   =    2.147    core radius for proj-oper                               
   RAUG   =    1.300    factor for augmentation sphere                          
   RDEP   =    2.177    radius for radial grids                                 
   RDEPT  =    1.928    core radius for aug-charge                              
                                                                                
   Atomic configuration                                                         
   10 entries                                                                   
     n  l   j            E        occ.                                          
     1  0  0.50    -12503.4787   2.0000                                         
     2  0  0.50     -1606.9547   2.0000                                         
     2  1  1.50     -1413.3140   6.0000                                         
     3  0  0.50      -213.4885   2.0000                                         
     3  1  1.50      -152.9538   6.0000                                         
     3  2  2.50       -53.1221  10.0000                                         
     4  0  0.50       -17.2865   2.0000                                         
     4  1  0.50        -6.5110   4.0000                                         
     4  2  2.50        -6.8029   0.0000                                         
     4  3  2.50        -6.8029   0.0000                                         
   Description                                                                  
     l       E           TYP  RCUT    TYP  RCUT                                 
     0    -17.2865377     23  2.100                                             
     0    -15.3094411     23  2.100                                             
     1     -6.5110275     23  2.100                                             
     1     -0.0695192     23  2.100                                             
     2     -6.8029130     23  2.100                                             
     3     -1.3605826      7  2.100                                             
  local pseudopotential read in
  partial core-charges read in
  partial kinetic energy density read in
  atomic valenz-charges read in
  non local Contribution for L=           0  read in
    real space projection operators read in
  non local Contribution for L=           0  read in
    real space projection operators read in
  non local Contribution for L=           1  read in
    real space projection operators read in
  non local Contribution for L=           1  read in
    real space projection operators read in
  non local Contribution for L=           2  read in
    real space projection operators read in
    PAW grid and wavefunctions read in
 
   number of l-projection  operators is LMAX  =           5
   number of lm-projection operators is LMMAX =          13
 
 Optimization of the real space projectors (new method)

 maximal supplied QI-value         = 13.98
 optimisation between [QCUT,QGAM] = [  9.09, 18.32] = [ 23.14, 93.97] Ry 
 Optimized for a Real-space Cutoff    1.74 Angstroem

   l    n(q)    QCUT    max X(q) W(low)/X(q) W(high)/X(q)  e(spline) 
   2      9     9.090   884.633    0.32E-03    0.26E-03    0.62E-06
   2      9     9.090   796.723    0.32E-03    0.26E-03    0.62E-06
   0     10     9.090    65.348    0.59E-04    0.18E-04    0.83E-07
   0     10     9.090    39.642    0.51E-04    0.17E-04    0.77E-07
   1      9     9.090    13.988    0.91E-04    0.74E-04    0.15E-06
   1      9     9.090     8.682    0.72E-04    0.50E-04    0.11E-06
 Optimization of the real space projectors (new method)

 maximal supplied QI-value         = 15.68
 optimisation between [QCUT,QGAM] = [  9.10, 18.19] = [ 23.17, 92.70] Ry 
 Optimized for a Real-space Cutoff    1.90 Angstroem

   l    n(q)    QCUT    max X(q) W(low)/X(q) W(high)/X(q)  e(spline) 
   0     10     9.097    10.201    0.29E-04    0.53E-05    0.51E-07
   0     10     9.097     8.174    0.44E-04    0.11E-04    0.10E-06
   1     10     9.097     3.488    0.28E-05    0.24E-04    0.13E-06
   1     10     9.097     4.917    0.55E-04    0.18E-03    0.30E-06
   2      9     9.097   153.744    0.39E-03    0.27E-03    0.13E-05
   2      9     9.097   126.342    0.39E-03    0.27E-03    0.13E-05
 Optimization of the real space projectors (new method)

 maximal supplied QI-value         = 19.84
 optimisation between [QCUT,QGAM] = [  9.13, 18.25] = [ 23.33, 93.32] Ry 
 Optimized for a Real-space Cutoff    1.29 Angstroem

   l    n(q)    QCUT    max X(q) W(low)/X(q) W(high)/X(q)  e(spline) 
   0      7     9.127   187.594    0.47E-03    0.35E-03    0.94E-07
   0      7     9.127   164.243    0.47E-03    0.35E-03    0.93E-07
   1      6     9.127    67.533    0.17E-03    0.38E-03    0.16E-06
   1      6     9.127    50.729    0.16E-03    0.37E-03    0.16E-06
 Optimization of the real space projectors (new method)

 maximal supplied QI-value         = 17.95
 optimisation between [QCUT,QGAM] = [  9.16, 18.31] = [ 23.47, 93.90] Ry 
 Optimized for a Real-space Cutoff    1.37 Angstroem

   l    n(q)    QCUT    max X(q) W(low)/X(q) W(high)/X(q)  e(spline) 
   0      7     9.156   133.320    0.16E-03    0.22E-03    0.50E-07
   0      7     9.156   111.601    0.16E-03    0.23E-03    0.52E-07
   1      7     9.156    47.222    0.44E-03    0.45E-03    0.16E-06
   1      7     9.156    33.775    0.43E-03    0.45E-03    0.15E-06
   2      6     9.156     3.720    0.19E-03    0.18E-03    0.54E-07
  PAW_PBE Re 17Jan2003                  :
 energy of atom  1       EATOM= -299.6589
 kinetic energy error for atom=    0.0166 (will be added to EATOM!!)
  PAW_PBE Nb_sv 25May2007               :
 energy of atom  2       EATOM=-1555.1913
 kinetic energy error for atom=    0.0519 (will be added to EATOM!!)
  PAW_PBE S 06Sep2000                   :
 energy of atom  3       EATOM= -276.8230
 kinetic energy error for atom=    0.0057 (will be added to EATOM!!)
  PAW_PBE Se 06Sep2000                  :
 energy of atom  4       EATOM= -257.1286
 kinetic energy error for atom=    0.0038 (will be added to EATOM!!)
 
 
 POSCAR: Nb18 Re18 Se36 S36                      
  positions in direct lattice
  No initial velocities read in
 exchange correlation table for  LEXCH =        8
   RHO(1)=    0.500       N(1)  =     2000
   RHO(2)=  100.500       N(2)  =     4000
 


--------------------------------------------------------------------------------------------------------


 ion  position               nearest neighbor table
   1  0.053  0.277  0.500-  60 2.40  40 2.41  77 2.52  93 2.52 102 2.58  90 2.58  27 3.16  16 3.24
                            15 3.39
   2  0.060  0.779  0.500-  61 2.38  45 2.44  49 2.44  75 2.51 107 2.53  88 2.54  17 3.18  12 3.36

   3  0.886  0.777  0.501-  42 2.38  87 2.51 105 2.52  74 2.53  88 2.58 107 2.58  25 3.20  28 3.24

   4  0.727  0.116  0.498-  54 2.39  73 2.44  68 2.44  85 2.52  86 2.53 104 2.53   5 3.17  14 3.24

   5  0.723  0.278  0.498-  54 2.37  65 2.41  59 2.44  85 2.51 108 2.55  95 2.58   4 3.17  13 3.39

   6  0.718  0.608  0.501-  39 2.39  64 2.40  66 2.40  43 2.40  87 2.58 105 2.59  36 3.18  19 3.19

   7  0.553  0.278  0.498-  56 2.39  55 2.39  65 2.46 101 2.52  79 2.53 108 2.59  31 3.15
   8  0.388  0.448  0.501-  50 2.37  62 2.37  78 2.54  96 2.54  80 2.59  91 2.59   9 3.14
   9  0.390  0.611  0.503-  62 2.39  50 2.39  51 2.40  53 2.44  94 2.54  76 2.58   8 3.14  10 3.19
                            18 3.31
  10  0.391  0.777  0.501-  51 2.39  57 2.41  63 2.44  94 2.53  72 2.56  82 2.57   9 3.19  18 3.27

  11  0.386  0.109  0.499-  41 2.39  67 2.40  98 2.53  97 2.54 101 2.58  79 2.59  20 3.23  32 3.24
                            12 3.39
  12  0.221  0.945  0.498-  52 2.39  38 2.39  45 2.40  49 2.40  67 2.46  97 2.59  35 3.19  34 3.20
                             2 3.36  11 3.39
  13  0.887  0.444  0.502-  37 2.38  59 2.39  83 2.52  95 2.52  99 2.59  84 2.60  28 3.20  23 3.22
                             5 3.39
  14  0.724  0.947  0.499-  71 2.44 104 2.50  86 2.50 106 2.55 103 2.55  81 2.58   4 3.24
  15  0.216  0.273  0.501-  58 2.39 102 2.51  90 2.52 100 2.52  96 2.59  78 2.59  35 3.22  16 3.29
                             1 3.39
  16  0.057  0.112  0.499-  48 2.39  58 2.44  93 2.54  77 2.54  92 2.54 100 2.57  22 3.21   1 3.24
                            15 3.29
  17  0.058  0.614  0.501-  61 2.37  44 2.44  75 2.51  99 2.54  84 2.55  89 2.58   2 3.18
  18  0.548  0.775  0.502-  63 2.38  53 2.38  82 2.51  76 2.52 103 2.60 106 2.60  29 3.19  24 3.21
                            10 3.27   9 3.31
  19  0.724  0.776  0.501-  43 2.46  66 2.47  42 2.52 103 2.60 106 2.60  74 2.66   6 3.19
  20  0.392  0.946  0.497-  57 2.46  67 2.46  47 2.54  70 2.55  72 2.59  97 2.59  11 3.23
  21  0.225  0.612  0.500-  46 2.47  44 2.47  69 2.47  51 2.51  89 2.61  94 2.62
  22  0.061  0.948  0.499-  48 2.45  52 2.51  38 2.52  92 2.58  88 2.60 107 2.60  16 3.21
  23  0.890  0.280  0.499-  59 2.46  73 2.47  68 2.48  60 2.53  40 2.54  95 2.59  13 3.22
  24  0.557  0.613  0.502-  53 2.46  66 2.52  43 2.53  76 2.58  91 2.60  80 2.61  18 3.21
  25  0.891  0.944  0.499-  42 2.44  71 2.48  48 2.53  74 2.58  81 2.61  92 2.67   3 3.20
  26  0.886  0.111  0.498-  71 2.47  68 2.47  73 2.47  81 2.61  93 2.63  77 2.63
  27  0.060  0.444  0.500-  40 2.46  60 2.46  69 2.54  46 2.54  84 2.58  99 2.59   1 3.16
  28  0.895  0.614  0.502-  37 2.46  61 2.52  83 2.59  87 2.60 105 2.61  75 2.65  13 3.20   3 3.24

  29  0.557  0.944  0.499-  63 2.46  70 2.47  47 2.48  82 2.59 104 2.65  86 2.65  18 3.19
  30  0.560  0.114  0.497-  70 2.48  47 2.48  54 2.51  79 2.59 101 2.59  85 2.65
  31  0.560  0.444  0.500-  55 2.44  56 2.45  64 2.52  39 2.52  80 2.61  91 2.62   7 3.15
  32  0.393  0.280  0.501-  41 2.46  55 2.53  56 2.53  98 2.60  78 2.60  96 2.60  11 3.24
  33  0.227  0.446  0.501-  46 2.47  69 2.48  50 2.52  62 2.52  90 2.59 102 2.60
  34  0.222  0.780  0.498-  45 2.46  49 2.46  44 2.47  57 2.54  89 2.60  72 2.67  12 3.20
  35  0.224  0.111  0.500-  58 2.45  38 2.46  52 2.47  41 2.53 100 2.58  98 2.66  12 3.19  15 3.22

  36  0.725  0.447  0.500-  39 2.45  64 2.45  65 2.49  37 2.53 108 2.61  83 2.67   6 3.18
  37  0.837  0.501  0.436-  13 2.38  28 2.46  36 2.53
  38  0.170  0.998  0.566-  12 2.39  35 2.46  22 2.52
  39  0.669  0.503  0.434-   6 2.39  36 2.45  31 2.52
  40  0.001  0.333  0.434-   1 2.41  27 2.46  23 2.54
  41  0.335  0.167  0.435-  11 2.39  32 2.46  35 2.53
  42  0.834  0.831  0.435-   3 2.38  25 2.44  19 2.52
  43  0.666  0.664  0.435-   6 2.40  19 2.46  24 2.53
  44  0.165  0.667  0.564-  17 2.44  21 2.47  34 2.47
  45  0.163  0.836  0.434-  12 2.40   2 2.44  34 2.46
  46  0.170  0.500  0.433-  21 2.47  33 2.47  27 2.54
  47  0.503  0.001  0.431-  29 2.48  30 2.48  20 2.54
  48  0.003  0.003  0.563-  16 2.39  22 2.45  25 2.53
  49  0.166  0.837  0.564-  12 2.40   2 2.44  34 2.46
  50  0.338  0.505  0.436-   8 2.37   9 2.39  33 2.52
  51  0.337  0.667  0.438-  10 2.39   9 2.40  21 2.51
  52  0.170  0.001  0.432-  12 2.39  35 2.47  22 2.51
  53  0.496  0.666  0.438-  18 2.38   9 2.44  24 2.46
  54  0.671  0.169  0.561-   5 2.37   4 2.39  30 2.51
  55  0.504  0.333  0.566-   7 2.39  31 2.44  32 2.53
  56  0.502  0.334  0.433-   7 2.39  31 2.45  32 2.53
  57  0.334  0.833  0.562-  10 2.41  20 2.46  34 2.54
  58  0.165  0.165  0.436-  15 2.39  16 2.44  35 2.45
  59  0.832  0.337  0.437-  13 2.39   5 2.44  23 2.46
  60  0.000  0.332  0.566-   1 2.40  27 2.46  23 2.53
  61  0.006  0.670  0.437-  17 2.37   2 2.38  28 2.52
  62  0.337  0.503  0.567-   8 2.37   9 2.39  33 2.52
  63  0.496  0.828  0.436-  18 2.38  10 2.44  29 2.46
  64  0.668  0.500  0.567-   6 2.40  36 2.45  31 2.52
  65  0.662  0.328  0.561-   5 2.41   7 2.46  36 2.49
  66  0.667  0.664  0.568-   6 2.40  19 2.47  24 2.52
  67  0.330  0.997  0.561-  11 2.40  20 2.46  12 2.46
  68  0.831  0.169  0.432-   4 2.44  26 2.47  23 2.48
  69  0.169  0.501  0.568-  21 2.47  33 2.48  27 2.54
  70  0.502  0.002  0.565-  29 2.47  30 2.48  20 2.55
  71  0.830  0.998  0.563-  14 2.44  26 2.47  25 2.48
  72  0.335  0.830  0.426-  10 2.56  20 2.59  34 2.67
  73  0.830  0.166  0.565-   4 2.44  26 2.47  23 2.47
  74  0.836  0.835  0.574-   3 2.53  25 2.58  19 2.66
  75  0.008  0.671  0.574-  17 2.51   2 2.51  28 2.65
  76  0.497  0.666  0.575-  18 2.52   9 2.58  24 2.58
  77  0.001  0.167  0.428-   1 2.52  16 2.54  26 2.63
  78  0.328  0.333  0.570-   8 2.54  15 2.59  32 2.60
  79  0.497  0.165  0.568-   7 2.53  11 2.59  30 2.59
  80  0.496  0.496  0.572-   8 2.59  24 2.61  31 2.61
  81  0.829  0.996  0.425-  14 2.58  26 2.61  25 2.61
  82  0.496  0.833  0.574-  18 2.51  10 2.57  29 2.59
  83  0.835  0.500  0.575-  13 2.52  28 2.59  36 2.67
  84  0.999  0.499  0.570-  17 2.55  27 2.58  13 2.60
  85  0.672  0.170  0.425-   5 2.51   4 2.52  30 2.65
  86  0.672  0.005  0.569-  14 2.50   4 2.53  29 2.65
  87  0.829  0.666  0.571-   3 2.51   6 2.58  28 2.60
  88  0.998  0.831  0.569-   2 2.54   3 2.58  22 2.60
  89  0.163  0.664  0.426-  17 2.58  34 2.60  21 2.61
  90  0.161  0.330  0.571-  15 2.52   1 2.58  33 2.59
  91  0.496  0.498  0.429-   8 2.59  24 2.60  31 2.62
  92  0.004  0.003  0.425-  16 2.54  22 2.58  25 2.67
  93  0.998  0.165  0.570-   1 2.52  16 2.54  26 2.63
  94  0.334  0.668  0.574-  10 2.53   9 2.54  21 2.62
  95  0.829  0.332  0.572-  13 2.52   5 2.58  23 2.59
  96  0.328  0.333  0.432-   8 2.54  15 2.59  32 2.60
  97  0.329  0.999  0.426-  11 2.54  20 2.59  12 2.59
  98  0.336  0.165  0.574-  11 2.53  32 2.60  35 2.66
  99  0.997  0.499  0.431-  17 2.54  13 2.59  27 2.59
 100  0.162  0.163  0.573-  15 2.52  16 2.57  35 2.58
 101  0.495  0.166  0.428-   7 2.52  11 2.58  30 2.59
 102  0.163  0.330  0.430-  15 2.51   1 2.58  33 2.60
 103  0.663  0.834  0.569-  14 2.55  19 2.60  18 2.60
 104  0.670  0.003  0.428-  14 2.50   4 2.53  29 2.65
 105  0.829  0.665  0.431-   3 2.52   6 2.59  28 2.61
 106  0.659  0.830  0.432-  14 2.55  19 2.60  18 2.60
 107  0.996  0.828  0.431-   2 2.53   3 2.58  22 2.60
 108  0.663  0.331  0.428-   5 2.55   7 2.59  36 2.61
 

IMPORTANT INFORMATION: All symmetrisations will be switched off!
NOSYMM: (Re-)initialisation of all symmetry stuff for point group C_1.

 
 
 KPOINTS: KPT-Resolved Value to Generate K-Mesh: 0

Automatic generation of k-mesh.
Space group operators:
 irot       det(A)        alpha          n_x          n_y          n_z        tau_x        tau_y        tau_z
    1     1.000000     0.000000     1.000000     0.000000     0.000000     0.000000     0.000000     0.000000
 
 Subroutine IBZKPT returns following result:
 ===========================================
 
 Found      1 irreducible k-points:
 
 Following reciprocal coordinates:
            Coordinates               Weight
  0.000000  0.000000  0.000000      1.000000
 
 Following cartesian coordinates:
            Coordinates               Weight
  0.000000  0.000000  0.000000      1.000000
 


--------------------------------------------------------------------------------------------------------




 Dimension of arrays:
   k-points           NKPTS =      1   k-points in BZ     NKDIM =      1   number of bands    NBANDS=    480
   number of dos      NEDOS =    301   number of ions     NIONS =    108
   non local maximal  LDIM  =      6   non local SUM 2l+1 LMDIM =     18
   total plane-waves  NPLWV = 874800
   max r-space proj   IRMAX =   3103   max aug-charges    IRDMAX=   6360
   dimension x,y,z NGX =    90 NGY =   90 NGZ =  108
   dimension x,y,z NGXF=   180 NGYF=  180 NGZF=  216
   support grid    NGXF=   180 NGYF=  180 NGZF=  216
   ions per type =              18  18  36  36
   NGX,Y,Z   is equivalent  to a cutoff of   7.27,  7.73,  7.68 a.u.
   NGXF,Y,Z  is equivalent  to a cutoff of  14.54, 15.46, 15.36 a.u.

 SYSTEM =  unknown system                          
 POSCAR =  Nb18 Re18 Se36 S36                      

 Startparameter for this run:
   NWRITE =      2    write-flag & timer
   PREC   = normal    normal or accurate (medium, high low for compatibility)
   ISTART =      0    job   : 0-new  1-cont  2-samecut
   ICHARG =      2    charge: 1-file 2-atom 10-const
   ISPIN  =      1    spin polarized calculation?
   LNONCOLLINEAR =      F non collinear calculations
   LSORBIT =      F    spin-orbit coupling
   INIWAV =      1    electr: 0-lowe 1-rand  2-diag
   LASPH  =      F    aspherical Exc in radial PAW
   METAGGA=      F    non-selfconsistent MetaGGA calc.

 Electronic Relaxation 1
   ENCUT  =  320.0 eV  23.52 Ry    4.85 a.u.  30.01 28.22 34.09*2*pi/ulx,y,z
   ENINI  =  320.0     initial cutoff
   ENAUG  =  455.7 eV  augmentation charge cutoff
   NELM   =     60;   NELMIN=  2; NELMDL= -5     # of ELM steps 
   EDIFF  = 0.1E-04   stopping-criterion for ELM
   LREAL  =      T    real-space projection
   NLSPLINE    = F    spline interpolate recip. space projectors
   LCOMPAT=      F    compatible to vasp.4.4
   GGA_COMPAT  = T    GGA compatible to vasp.4.4-vasp.4.6
   LMAXPAW     = -100 max onsite density
   LMAXMIX     =    2 max onsite mixed and CHGCAR
   VOSKOWN=      0    Vosko Wilk Nusair interpolation
   ROPT   =   -0.00050  -0.00050  -0.00050  -0.00050
 Ionic relaxation
   EDIFFG = -.2E-01   stopping-criterion for IOM
   NSW    =    300    number of steps for IOM
   NBLOCK =      1;   KBLOCK =    300    inner block; outer block 
   IBRION =      2    ionic relax: 0-MD 1-quasi-New 2-CG
   NFREE  =      1    steps in history (QN), initial steepest desc. (CG)
   ISIF   =      3    stress and relaxation
   IWAVPR =     11    prediction:  0-non 1-charg 2-wave 3-comb
   ISYM   =      0    0-nonsym 1-usesym 2-fastsym
   LCORR  =      T    Harris-Foulkes like correction to forces

   POTIM  = 0.5000    time-step for ionic-motion
   TEIN   =    0.0    initial temperature
   TEBEG  =    0.0;   TEEND  =   0.0 temperature during run
   SMASS  =  -3.00    Nose mass-parameter (am)
   estimated Nose-frequenzy (Omega)   =  0.10E-29 period in steps =****** mass=  -0.967E-26a.u.
   SCALEE = 1.0000    scale energy and forces
   NPACO  =    256;   APACO  = 16.0  distance and # of slots for P.C.
   PSTRESS=    0.0 pullay stress

  Mass of Ions in am
   POMASS = 186.21 92.91 32.07 78.96
  Ionic Valenz
   ZVAL   =   7.00 13.00  6.00  6.00
  Atomic Wigner-Seitz radii
   RWIGS  =  -1.00 -1.00 -1.00 -1.00
  virtual crystal weights 
   VCA    =   1.00  1.00  1.00  1.00
   NELECT =     792.0000    total number of electrons
   NUPDOWN=      -1.0000    fix difference up-down

 DOS related values:
   EMIN   =  10.00;   EMAX   =-10.00  energy-range for DOS
   EFERMI =   0.00
   ISMEAR =     0;   SIGMA  =   0.05  broadening in eV -4-tet -1-fermi 0-gaus

 Electronic relaxation 2 (details)
   IALGO  =     38    algorithm
   LDIAG  =      T    sub-space diagonalisation (order eigenvalues)
   LSUBROT=      F    optimize rotation matrix (better conditioning)
   TURBO    =      0    0=normal 1=particle mesh
   IRESTART =      0    0=no restart 2=restart with 2 vectors
   NREBOOT  =      0    no. of reboots
   NMIN     =      0    reboot dimension
   EREF     =   0.00    reference energy to select bands
   IMIX   =      4    mixing-type and parameters
     AMIX     =   0.40;   BMIX     =  1.00
     AMIX_MAG =   1.60;   BMIX_MAG =  1.00
     AMIN     =   0.10
     WC   =   100.;   INIMIX=   1;  MIXPRE=   1;  MAXMIX= -45

 Intra band minimization:
   WEIMIN = 0.0010     energy-eigenvalue tresh-hold
   EBREAK =  0.52E-08  absolut break condition
   DEPER  =   0.30     relativ break condition  

   TIME   =   0.40     timestep for ELM

  volume/ion in A,a.u.               =      76.01       512.93
  Fermi-wavevector in a.u.,A,eV,Ry     =   0.750854  1.418908  7.670715  0.563782
  Thomas-Fermi vector in A             =   1.847701
 
 Write flags
   LWAVE        =      F    write WAVECAR
   LDOWNSAMPLE  =      F    k-point downsampling of WAVECAR
   LCHARG       =      F    write CHGCAR
   LVTOT        =      F    write LOCPOT, total local potential
   LVHAR        =      F    write LOCPOT, Hartree potential only
   LELF         =      F    write electronic localiz. function (ELF)
   LORBIT       =      0    0 simple, 1 ext, 2 COOP (PROOUT), +10 PAW based schemes


 Dipole corrections
   LMONO  =      F    monopole corrections only (constant potential shift)
   LDIPOL =      F    correct potential (dipole corrections)
   IDIPOL =      0    1-x, 2-y, 3-z, 4-all directions 
   EPSILON=  1.0000000 bulk dielectric constant

 Exchange correlation treatment:
   GGA     =    --    GGA type
   LEXCH   =     8    internal setting for exchange type
   VOSKOWN=      0    Vosko Wilk Nusair interpolation
   LHFCALC =     F    Hartree Fock is set to
   LHFONE  =     F    Hartree Fock one center treatment
   AEXX    =    0.0000 exact exchange contribution

 Linear response parameters
   LEPSILON=     F    determine dielectric tensor
   LRPA    =     F    only Hartree local field effects (RPA)
   LNABLA  =     F    use nabla operator in PAW spheres
   LVEL    =     F    velocity operator in full k-point grid
   LINTERFAST=   F  fast interpolation
   KINTER  =     0    interpolate to denser k-point grid
   CSHIFT  =0.1000    complex shift for real part using Kramers Kronig
   OMEGAMAX=  -1.0    maximum frequency
   DEG_THRESHOLD= 0.2000000E-02 threshold for treating states as degnerate
   RTIME   =   -0.100 relaxation time in fs
  (WPLASMAI=    0.000 imaginary part of plasma frequency in eV, 0.658/RTIME)
   DFIELD  = 0.0000000 0.0000000 0.0000000 field for delta impulse in time
 
 Orbital magnetization related:
   ORBITALMAG=     F  switch on orbital magnetization
   LCHIMAG   =     F  perturbation theory with respect to B field
   DQ        =  0.001000  dq finite difference perturbation B field
   LLRAUG    =     F  two centre corrections for induced B field



--------------------------------------------------------------------------------------------------------


 conjugate gradient relaxation of ions
 charge density and potential will be updated during run
 non-spin polarized calculation
 Variant of blocked Davidson
 Davidson routine will perform the subspace rotation
 perform sub-space diagonalisation
    after iterative eigenvector-optimisation
 modified Broyden-mixing scheme, WC =      100.0
 initial mixing is a Kerker type mixing with AMIX =  0.4000 and BMIX =      1.0000
 Hartree-type preconditioning will be used
 using additional bands           84
 real space projection scheme for non local part
 use partial core corrections
 calculate Harris-corrections to forces 
   (improved forces if not selfconsistent)
 use gradient corrections 
 use of overlap-Matrix (Vanderbilt PP)
 Gauss-broadening in eV      SIGMA  =   0.05


--------------------------------------------------------------------------------------------------------


  energy-cutoff  :      320.00
  volume of cell :     8208.87
      direct lattice vectors                 reciprocal lattice vectors
    -9.682544000-18.154622000  0.000000000     0.000021097 -0.055093644  0.000000000
    19.350768000  0.007410000  0.000000000     0.051688092 -0.027567207  0.000000000
     0.000000000  0.000000000 23.371500000     0.000000000  0.000000000  0.042787155

  length of vectors
    20.575275412 19.350769419 23.371500000     0.055093648  0.058579943  0.042787155


 
 k-points in units of 2pi/SCALE and weight: KPT-Resolved Value to Generate K-Mesh: 0
   0.00000000  0.00000000  0.00000000       1.000
 
 k-points in reciprocal lattice and weights: KPT-Resolved Value to Generate K-Mesh: 0
   0.00000000  0.00000000  0.00000000       1.000
 
 position of ions in fractional coordinates (direct lattice) 
   0.05332600  0.27737900  0.49993400
   0.05952500  0.77855200  0.50027400
   0.88636800  0.77681500  0.50087900
   0.72685100  0.11586600  0.49755800
   0.72339400  0.27799600  0.49809400
   0.71830500  0.60796800  0.50121300
   0.55320000  0.27796000  0.49829000
   0.38753100  0.44799900  0.50129800
   0.38969900  0.61141400  0.50286500
   0.39055300  0.77673600  0.50074400
   0.38566200  0.10885600  0.49901300
   0.22052200  0.94455800  0.49824400
   0.88681400  0.44440600  0.50181200
   0.72380100  0.94716200  0.49889000
   0.21625600  0.27343500  0.50130800
   0.05735400  0.11213300  0.49920400
   0.05829500  0.61373400  0.50063000
   0.54844000  0.77482200  0.50242200
   0.72398600  0.77582100  0.50095700
   0.39241700  0.94562200  0.49708100
   0.22452600  0.61190900  0.49974800
   0.06116700  0.94795800  0.49877400
   0.89012800  0.27983400  0.49946000
   0.55691800  0.61346800  0.50176200
   0.89123200  0.94434300  0.49862500
   0.88625900  0.11093100  0.49761300
   0.06000300  0.44373300  0.50002500
   0.89472000  0.61358300  0.50167000
   0.55724900  0.94391700  0.49906100
   0.56010100  0.11365900  0.49703700
   0.55960000  0.44368000  0.49995500
   0.39300900  0.27966600  0.50096900
   0.22710600  0.44624600  0.50108500
   0.22154300  0.77984300  0.49790100
   0.22398600  0.11125900  0.50046300
   0.72457800  0.44705600  0.50016100
   0.83703500  0.50127100  0.43609900
   0.16951700  0.99835000  0.56605200
   0.66932700  0.50253300  0.43369200
   0.00107500  0.33269700  0.43350700
   0.33499500  0.16744600  0.43509100
   0.83419500  0.83107400  0.43521800
   0.66638900  0.66368000  0.43502000
   0.16513100  0.66694900  0.56404900
   0.16344300  0.83566600  0.43398300
   0.17031400  0.49987800  0.43301600
   0.50329900  0.00050900  0.43062800
   0.00289700  0.00274200  0.56312600
   0.16627700  0.83663700  0.56386000
   0.33795400  0.50492100  0.43629100
   0.33692900  0.66673000  0.43750600
   0.16986800  0.00080600  0.43221700
   0.49567400  0.66618800  0.43841300
   0.67119500  0.16929200  0.56121500
   0.50407300  0.33327400  0.56632800
   0.50166200  0.33404200  0.43301500
   0.33390500  0.83314100  0.56249100
   0.16477500  0.16548800  0.43647300
   0.83198400  0.33713900  0.43652100
   0.00029900  0.33181500  0.56595400
   0.00606400  0.66954900  0.43711200
   0.33676100  0.50278800  0.56726400
   0.49609800  0.82844200  0.43642700
   0.66801700  0.50044900  0.56724500
   0.66204800  0.32764600  0.56057700
   0.66711400  0.66408100  0.56757600
   0.32973100  0.99682600  0.56074600
   0.83132900  0.16888400  0.43154700
   0.16948800  0.50096900  0.56763100
   0.50236700  0.00244900  0.56476100
   0.82979100  0.99763800  0.56278500
   0.33542100  0.82991400  0.42550900
   0.82993500  0.16628400  0.56467800
   0.83571700  0.83477800  0.57438800
   0.00790900  0.67087000  0.57357100
   0.49691400  0.66569400  0.57508700
   0.00058200  0.16733200  0.42823600
   0.32830100  0.33343500  0.57018900
   0.49673100  0.16549500  0.56824400
   0.49642400  0.49583300  0.57246600
   0.82905900  0.99561000  0.42478900
   0.49638900  0.83290900  0.57370400
   0.83511100  0.50029700  0.57520200
   0.99940900  0.49933400  0.57028800
   0.67244400  0.17048300  0.42483500
   0.67172100  0.00532000  0.56939800
   0.82876600  0.66571800  0.57087300
   0.99806300  0.83103200  0.56936300
   0.16309800  0.66445700  0.42578100
   0.16134700  0.33002400  0.57145700
   0.49598500  0.49821800  0.42938400
   0.00378300  0.00314800  0.42516300
   0.99762000  0.16468200  0.56958600
   0.33350700  0.66774700  0.57352900
   0.82899300  0.33245200  0.57204000
   0.32790300  0.33345000  0.43210700
   0.32939200  0.99876100  0.42637800
   0.33562600  0.16518600  0.57399300
   0.99714400  0.49949200  0.43140800
   0.16246800  0.16302600  0.57302400
   0.49476500  0.16627700  0.42811400
   0.16299500  0.33021600  0.43003700
   0.66277500  0.83377500  0.56944400
   0.67032200  0.00263400  0.42765600
   0.82882400  0.66472600  0.43125200
   0.65945500  0.82997000  0.43203200
   0.99629900  0.82799600  0.43067900
   0.66336700  0.33120900  0.42771600
 
 position of ions in cartesian coordinates  (Angst):
   4.85116534 -0.96605799 11.68420748
  14.48922570 -1.07488480 11.69215379
   6.44966968-16.08591979 11.70629355
  -4.79567070-13.19484659 11.62867680
  -1.62485813-13.13088468 11.64120392
   4.80962795-13.03605071 11.71409963
   0.02235613-10.04107721 11.64578473
   4.91683875 -7.03215915 11.71608621
   8.05805275 -7.07030746 11.75270935
  11.24889153 -7.08458647 11.70313840
  -1.62774208 -7.00074121 11.66268233
  16.14270875 -3.99649438 11.64470965
   0.01298183-16.09647991 11.72809916
  11.32007709-13.13331509 11.65980764
   3.19726901 -3.92401978 11.71631992
   1.61452704 -1.04040928 11.66714629
  11.31178035 -1.05377592 11.70047405
   9.68310633 -9.95097946 11.74235577
   8.00270588-13.13794333 11.70811653
  14.49891707 -7.11717524 11.61752859
   9.66692622 -4.07165041 11.67986038
  17.75146316 -1.10343940 11.65709654
  -3.20370071-16.15786380 11.67312939
   6.47869390-10.10608998 11.72693058
   9.64436925-16.17298249 11.65361419
  -6.43464172-16.08887514 11.62996223
   8.00559265 -1.08604372 11.68633429
   3.21013651-16.23875675 11.72478040
  12.86993092-10.10965053 11.66380416
  -3.22381364-10.16757972 11.61650025
   3.16719712-10.15603880 11.68469828
   1.60642495 -7.13285751 11.70839698
   6.43623898 -4.11971690 11.71110808
  12.94546112 -4.01625079 11.63669322
  -0.01580720 -4.06555673 11.69657100
   1.63511857-13.15112701 11.68951281
   1.59535061-15.19233961 10.19228778
  17.67748342 -3.07011928 13.22948432
   3.24361137-12.14765491 10.13603258
   6.42753373 -0.01705093 10.13170885
  -0.00339513 -6.08046682 10.16872931
   8.00479037-15.13833664 10.17169749
   6.39037689-12.09312253 10.16706993
  11.30708719 -2.99294879 13.18267120
  14.58823485 -2.96105360 10.14283368
   8.02395041 -3.08828220 10.12023344
  -4.86336517 -9.13719933 10.06442230
   0.02500948 -0.05257362 13.16109931
  14.57958412 -3.01249660 13.17825399
   6.49835465 -6.13168566 10.19677511
   9.63940768 -6.11187817 10.22517148
  -1.62915767 -3.08388336 10.10155962
   8.09186412 -8.99383765 10.24636943
  -3.22294490-12.18403706 13.11643637
   1.56839885 -9.14878522 13.23593485
   1.60660486 -9.10500873 10.12021007
  12.88886835 -6.05574548 13.14625841
   1.60687871 -2.99020157 10.20102872
  -1.53182311-15.10185683 10.20215055
   6.41798000 -0.00296948 13.22719391
  12.89757242 -0.10512827 10.21596311
   6.46863074 -6.11004300 13.25781058
  11.22749823 -9.00033291 10.19995363
   3.21596850-12.12388780 13.25736652
  -0.07010716-12.01680333 13.10152536
   6.39111671-12.10628166 13.26510248
  16.09671375 -5.97875519 13.10547514
  -4.78134452-15.09121232 10.08590071
   8.05305988 -3.07327839 13.26638792
  -4.81680055 -9.12026484 13.19931171
  11.27057362-15.05714945 13.15312963
  12.81174468 -6.08329180  9.94478359
  -4.81815905-15.06592405 13.19737188
   8.06172879-15.16594053 13.42430914
  12.90527049 -0.13861376 13.40521463
   8.07029848 -9.01635304 13.44064582
   3.23236747 -0.00932606 10.00851767
   3.27343445 -5.95770980 13.32617221
  -1.60716441 -9.01673722 13.28071465
   4.78810213 -9.00871595 13.37938912
  11.23841788-15.04387529  9.92795611
  11.31112049 -9.00558280 13.40832304
   1.59513218-15.15741733 13.44333354
  -0.01432523-18.14019255 13.32848599
  -3.21199164-12.20670336  9.92903120
  -6.40102205-12.19480142 13.30768536
   4.85759131-15.04100049 13.34215832
   6.41731852-18.11329855 13.30686735
  11.27854969 -2.95605891  9.95114064
   4.82396843 -2.92674832 13.35580728
   4.83850435 -9.00072840 10.03534816
   0.02428715 -0.06865561  9.93669705
  -6.47277637-18.11019371 13.31207920
   9.69222108 -6.04974551 13.40423302
  -1.59355968-15.04759109 13.36943286
   3.27757836 -5.95048415 10.09898875
  16.13743987 -5.97258643  9.96509343
  -0.05323755 -6.09193914 13.41507740
   0.01066316-18.09907116 10.08265207
   1.58157475 -2.94833710 13.39243042
  -1.57299623 -8.98103944 10.00566635
   4.81172695 -2.95666571 10.05060975
   9.71683849-12.02625132 13.30876045
  -6.43945234-12.16942301  9.99496220
   4.83783376-15.04206080 10.07900612
   9.67535486-11.96600617 10.09723589
   6.37564960-18.08129629 10.06561425
  -0.01393165-12.04072287  9.99636449
 


--------------------------------------------------------------------------------------------------------


 k-point  1 :   0.0000 0.0000 0.0000  plane waves:  106699

 maximum and minimum number of plane-waves per node :    106699   106699

 maximum number of plane-waves:    106699
 maximum index in each direction: 
   IXMAX=   30   IYMAX=   28   IZMAX=   34
   IXMIN=  -30   IYMIN=  -28   IZMIN=  -34


 serial   3D FFT for wavefunctions
 parallel 3D FFT for charge:
    minimum data exchange during FFTs selected (reduces bandwidth)


 total amount of memory used by VASP MPI-rank0   165367. kBytes
=======================================================================

   base      :      30000. kBytes
   nonlr-proj:      27500. kBytes
   fftplans  :      13913. kBytes
   grid      :      57677. kBytes
   one-center:       1679. kBytes
   wavefun   :      34598. kBytes
 
     INWAV:  cpu time    0.0000: real time    0.0002
 Broyden mixing: mesh for mixing (old mesh)
   NGX = 61   NGY = 57   NGZ = 69
  (NGX  =180   NGY  =180   NGZ  =216)
  gives a total of 239913 points

 initial charge density was supplied:
 charge density of overlapping atoms calculated
 number of electron     792.0000000 magnetization 
 keeping initial charge density in first step


--------------------------------------------------------------------------------------------------------


 Maximum index for non-local projection operator         2967
 Maximum index for augmentation-charges          372 (set IRDMAX)


--------------------------------------------------------------------------------------------------------


 First call to EWALD:  gamma=   0.088
 Maximum number of real-space cells 3x 3x 2
 Maximum number of reciprocal cells 3x 3x 3

    FEWALD:  cpu time    0.0039: real time    0.0041


--------------------------------------- Iteration      1(   1)  ---------------------------------------


    POTLOK:  cpu time    0.2642: real time    0.2668
    SETDIJ:  cpu time    0.0096: real time    0.0097
     EDDAV:  cpu time   13.2038: real time   13.2477
       DOS:  cpu time    0.0006: real time    0.0006
    --------------------------------------------
      LOOP:  cpu time   13.4782: real time   13.5248

 eigenvalue-minimisations  :  1632
 total energy-change (2. order) : 0.7354278E+04  (-0.2376435E+05)
 number of electron     792.0000000 magnetization 
 augmentation part      792.0000000 magnetization 

 Free energy of the ion-electron system (eV)
  ---------------------------------------------------
  alpha Z        PSCENC =       723.28310472
  Ewald energy   TEWEN  =    163319.63804885
  -Hartree energ DENC   =   -209177.26343142
  -exchange      EXHF   =         0.00000000
  -V(xc)+E(xc)   XCENC  =       604.61974498
  PAW double counting   =     43575.64502536   -41516.97141427
  entropy T*S    EENTRO =        -0.05275523
  eigenvalues    EBANDS =     -2782.60765475
  atomic energy  EATOM  =     52607.98737452
  Solvation  Ediel_sol  =         0.00000000
  ---------------------------------------------------
  free energy    TOTEN  =      7354.27804275 eV

  energy without entropy =     7354.33079798  energy(sigma->0) =     7354.30442037


--------------------------------------------------------------------------------------------------------




--------------------------------------- Iteration      1(   2)  ---------------------------------------


     EDDAV:  cpu time   13.4798: real time   13.5185
       DOS:  cpu time    0.0003: real time    0.0003
    --------------------------------------------
      LOOP:  cpu time   13.4801: real time   13.5188

 eigenvalue-minimisations  :  1680
 total energy-change (2. order) :-0.6324398E+04  (-0.6024857E+04)
 number of electron     792.0000000 magnetization 
 augmentation part      792.0000000 magnetization 

 Free energy of the ion-electron system (eV)
  ---------------------------------------------------
  alpha Z        PSCENC =       723.28310472
  Ewald energy   TEWEN  =    163319.63804885
  -Hartree energ DENC   =   -209177.26343142
  -exchange      EXHF   =         0.00000000
  -V(xc)+E(xc)   XCENC  =       604.61974498
  PAW double counting   =     43575.64502536   -41516.97141427
  entropy T*S    EENTRO =        -0.03847581
  eigenvalues    EBANDS =     -9107.01944939
  atomic energy  EATOM  =     52607.98737452
  Solvation  Ediel_sol  =         0.00000000
  ---------------------------------------------------
  free energy    TOTEN  =      1029.88052753 eV

  energy without entropy =     1029.91900334  energy(sigma->0) =     1029.89976544


--------------------------------------------------------------------------------------------------------




--------------------------------------- Iteration      1(   3)  ---------------------------------------


     EDDAV:  cpu time   14.7976: real time   14.8421
       DOS:  cpu time    0.0002: real time    0.0002
    --------------------------------------------
      LOOP:  cpu time   14.7977: real time   14.8422

 eigenvalue-minimisations  :  1872
 total energy-change (2. order) :-0.1610492E+04  (-0.1580021E+04)
 number of electron     792.0000000 magnetization 
 augmentation part      792.0000000 magnetization 

 Free energy of the ion-electron system (eV)
  ---------------------------------------------------
  alpha Z        PSCENC =       723.28310472
  Ewald energy   TEWEN  =    163319.63804885
  -Hartree energ DENC   =   -209177.26343142
  -exchange      EXHF   =         0.00000000
  -V(xc)+E(xc)   XCENC  =       604.61974498
  PAW double counting   =     43575.64502536   -41516.97141427
  entropy T*S    EENTRO =        -0.00000000
  eigenvalues    EBANDS =    -10717.55042336
  atomic energy  EATOM  =     52607.98737452
  Solvation  Ediel_sol  =         0.00000000
  ---------------------------------------------------
  free energy    TOTEN  =      -580.61197063 eV

  energy without entropy =     -580.61197063  energy(sigma->0) =     -580.61197063


--------------------------------------------------------------------------------------------------------




--------------------------------------- Iteration      1(   4)  ---------------------------------------


     EDDAV:  cpu time   14.3664: real time   14.4064
       DOS:  cpu time    0.0002: real time    0.0002
    --------------------------------------------
      LOOP:  cpu time   14.3666: real time   14.4065

 eigenvalue-minimisations  :  1824
 total energy-change (2. order) :-0.1885712E+03  (-0.1831501E+03)
 number of electron     792.0000000 magnetization 
 augmentation part      792.0000000 magnetization 

 Free energy of the ion-electron system (eV)
  ---------------------------------------------------
  alpha Z        PSCENC =       723.28310472
  Ewald energy   TEWEN  =    163319.63804885
  -Hartree energ DENC   =   -209177.26343142
  -exchange      EXHF   =         0.00000000
  -V(xc)+E(xc)   XCENC  =       604.61974498
  PAW double counting   =     43575.64502536   -41516.97141427
  entropy T*S    EENTRO =        -0.00000000
  eigenvalues    EBANDS =    -10906.12161215
  atomic energy  EATOM  =     52607.98737452
  Solvation  Ediel_sol  =         0.00000000
  ---------------------------------------------------
  free energy    TOTEN  =      -769.18315941 eV

  energy without entropy =     -769.18315941  energy(sigma->0) =     -769.18315941


--------------------------------------------------------------------------------------------------------




--------------------------------------- Iteration      1(   5)  ---------------------------------------


     EDDAV:  cpu time   14.6439: real time   14.6840
       DOS:  cpu time    0.0002: real time    0.0002
    CHARGE:  cpu time    0.5396: real time    0.5414
    MIXING:  cpu time    0.0074: real time    0.0075
    --------------------------------------------
      LOOP:  cpu time   15.1911: real time   15.2331

 eigenvalue-minimisations  :  1872
 total energy-change (2. order) :-0.3194360E+02  (-0.3116971E+02)
 number of electron     791.9999828 magnetization 
 augmentation part      -30.0544355 magnetization 

 Broyden mixing:
  rms(total) = 0.13441E+02    rms(broyden)= 0.13440E+02
  rms(prec ) = 0.13593E+02
  weight for this iteration     100.00

 Free energy of the ion-electron system (eV)
  ---------------------------------------------------
  alpha Z        PSCENC =       723.28310472
  Ewald energy   TEWEN  =    163319.63804885
  -Hartree energ DENC   =   -209177.26343142
  -exchange      EXHF   =         0.00000000
  -V(xc)+E(xc)   XCENC  =       604.61974498
  PAW double counting   =     43575.64502536   -41516.97141427
  entropy T*S    EENTRO =        -0.00000000
  eigenvalues    EBANDS =    -10938.06521475
  atomic energy  EATOM  =     52607.98737452
  Solvation  Ediel_sol  =         0.00000000
  ---------------------------------------------------
  free energy    TOTEN  =      -801.12676201 eV

  energy without entropy =     -801.12676201  energy(sigma->0) =     -801.12676201


--------------------------------------------------------------------------------------------------------




--------------------------------------- Iteration      1(   6)  ---------------------------------------


    POTLOK:  cpu time    0.2511: real time    0.2590
    SETDIJ:  cpu time    0.0094: real time    0.0094
     EDDAV:  cpu time   14.4967: real time   14.5377
       DOS:  cpu time    0.0002: real time    0.0002
    CHARGE:  cpu time    0.5413: real time    0.5426
    MIXING:  cpu time    0.0082: real time    0.0082
    --------------------------------------------
      LOOP:  cpu time   15.3068: real time   15.3570

 eigenvalue-minimisations  :  1848
 total energy-change (2. order) : 0.3454748E+02  (-0.4986635E+02)
 number of electron     791.9999851 magnetization 
 augmentation part      -18.0474028 magnetization 

 Broyden mixing:
  rms(total) = 0.45262E+01    rms(broyden)= 0.45260E+01
  rms(prec ) = 0.46768E+01
  weight for this iteration     100.00

 eigenvalues of (default mixing * dielectric matrix)
  average eigenvalue GAMMA=   1.0543
  1.0543

 Free energy of the ion-electron system (eV)
  ---------------------------------------------------
  alpha Z        PSCENC =       723.28310472
  Ewald energy   TEWEN  =    163319.63804885
  -Hartree energ DENC   =   -208633.27561778
  -exchange      EXHF   =         0.00000000
  -V(xc)+E(xc)   XCENC  =       606.62199229
  PAW double counting   =     54333.03895052   -52359.64283023
  entropy T*S    EENTRO =        -0.00000000
  eigenvalues    EBANDS =    -11364.23029994
  atomic energy  EATOM  =     52607.98737452
  Solvation  Ediel_sol  =         0.00000000
  ---------------------------------------------------
  free energy    TOTEN  =      -766.57927705 eV

  energy without entropy =     -766.57927705  energy(sigma->0) =     -766.57927705


--------------------------------------------------------------------------------------------------------




--------------------------------------- Iteration      1(   7)  ---------------------------------------


    POTLOK:  cpu time    0.2488: real time    0.2499
    SETDIJ:  cpu time    0.0095: real time    0.0095
     EDDAV:  cpu time   14.5659: real time   14.6438
       DOS:  cpu time    0.0002: real time    0.0002
    CHARGE:  cpu time    0.5374: real time    0.5392
    MIXING:  cpu time    0.0091: real time    0.0091
    --------------------------------------------
      LOOP:  cpu time   15.3709: real time   15.4517

 eigenvalue-minimisations  :  1848
 total energy-change (2. order) :-0.5119334E+00  (-0.1878478E+02)
 number of electron     791.9999843 magnetization 
 augmentation part      -25.2401545 magnetization 

 Broyden mixing:
  rms(total) = 0.52697E+01    rms(broyden)= 0.52695E+01
  rms(prec ) = 0.53476E+01
  weight for this iteration     100.00

 eigenvalues of (default mixing * dielectric matrix)
  average eigenvalue GAMMA=   1.2007
  1.8614  0.5400

 Free energy of the ion-electron system (eV)
  ---------------------------------------------------
  alpha Z        PSCENC =       723.28310472
  Ewald energy   TEWEN  =    163319.63804885
  -Hartree energ DENC   =   -208936.78330343
  -exchange      EXHF   =         0.00000000
  -V(xc)+E(xc)   XCENC  =       602.51243892
  PAW double counting   =     62064.14693436   -60098.13333300
  entropy T*S    EENTRO =        -0.00000000
  eigenvalues    EBANDS =    -11049.74247539
  atomic energy  EATOM  =     52607.98737452
  Solvation  Ediel_sol  =         0.00000000
  ---------------------------------------------------
  free energy    TOTEN  =      -767.09121044 eV

  energy without entropy =     -767.09121044  energy(sigma->0) =     -767.09121044


--------------------------------------------------------------------------------------------------------




--------------------------------------- Iteration      1(   8)  ---------------------------------------


    POTLOK:  cpu time    0.2423: real time    0.2431
    SETDIJ:  cpu time    0.0093: real time    0.0093
     EDDAV:  cpu time   14.4700: real time   14.5171
       DOS:  cpu time    0.0002: real time    0.0002
    CHARGE:  cpu time    0.5345: real time    0.5362
    MIXING:  cpu time    0.0100: real time    0.0100
    --------------------------------------------
      LOOP:  cpu time   15.2663: real time   15.3158

 eigenvalue-minimisations  :  1848
 total energy-change (2. order) : 0.3568591E+01  (-0.4625416E+01)
 number of electron     791.9999852 magnetization 
 augmentation part      -26.8056684 magnetization 

 Broyden mixing:
  rms(total) = 0.12352E+01    rms(broyden)= 0.12348E+01
  rms(prec ) = 0.12810E+01
  weight for this iteration     100.00

 eigenvalues of (default mixing * dielectric matrix)
  average eigenvalue GAMMA=   1.1192
  1.9747  0.7795  0.6034

 Free energy of the ion-electron system (eV)
  ---------------------------------------------------
  alpha Z        PSCENC =       723.28310472
  Ewald energy   TEWEN  =    163319.63804885
  -Hartree energ DENC   =   -209130.90660085
  -exchange      EXHF   =         0.00000000
  -V(xc)+E(xc)   XCENC  =       609.33171407
  PAW double counting   =     71321.48391467   -69356.76198377
  entropy T*S    EENTRO =        -0.00000000
  eigenvalues    EBANDS =    -10857.57819213
  atomic energy  EATOM  =     52607.98737452
  Solvation  Ediel_sol  =         0.00000000
  ---------------------------------------------------
  free energy    TOTEN  =      -763.52261993 eV

  energy without entropy =     -763.52261993  energy(sigma->0) =     -763.52261993


--------------------------------------------------------------------------------------------------------




--------------------------------------- Iteration      1(   9)  ---------------------------------------


    POTLOK:  cpu time    0.2429: real time    0.2435
    SETDIJ:  cpu time    0.0094: real time    0.0094
     EDDAV:  cpu time   14.1074: real time   14.1461
       DOS:  cpu time    0.0002: real time    0.0002
    CHARGE:  cpu time    0.5396: real time    0.5413
    MIXING:  cpu time    0.0078: real time    0.0079
    --------------------------------------------
      LOOP:  cpu time   14.9072: real time   14.9484

 eigenvalue-minimisations  :  1800
 total energy-change (2. order) : 0.8202130E+00  (-0.9487781E+00)
 number of electron     791.9999852 magnetization 
 augmentation part      -26.1260165 magnetization 

 Broyden mixing:
  rms(total) = 0.90196E+00    rms(broyden)= 0.90182E+00
  rms(prec ) = 0.91792E+00
  weight for this iteration     100.00

 eigenvalues of (default mixing * dielectric matrix)
  average eigenvalue GAMMA=   0.9837
  2.0058  0.8879  0.6105  0.4305

 Free energy of the ion-electron system (eV)
  ---------------------------------------------------
  alpha Z        PSCENC =       723.28310472
  Ewald energy   TEWEN  =    163319.63804885
  -Hartree energ DENC   =   -209097.41441171
  -exchange      EXHF   =         0.00000000
  -V(xc)+E(xc)   XCENC  =       611.27956358
  PAW double counting   =     72739.79001735   -70765.06787664
  entropy T*S    EENTRO =        -0.00000000
  eigenvalues    EBANDS =    -10902.19822760
  atomic energy  EATOM  =     52607.98737452
  Solvation  Ediel_sol  =         0.00000000
  ---------------------------------------------------
  free energy    TOTEN  =      -762.70240693 eV

  energy without entropy =     -762.70240693  energy(sigma->0) =     -762.70240693


--------------------------------------------------------------------------------------------------------




--------------------------------------- Iteration      1(  10)  ---------------------------------------


    POTLOK:  cpu time    0.2426: real time    0.2498
    SETDIJ:  cpu time    0.0096: real time    0.0096
     EDDAV:  cpu time   15.0526: real time   15.0976
       DOS:  cpu time    0.0002: real time    0.0002
    CHARGE:  cpu time    0.5340: real time    0.5353
    MIXING:  cpu time    0.0115: real time    0.0115
    --------------------------------------------
      LOOP:  cpu time   15.8505: real time   15.9040

 eigenvalue-minimisations  :  1920
 total energy-change (2. order) :-0.8969871E-01  (-0.3370055E+00)
 number of electron     791.9999855 magnetization 
 augmentation part      -25.9801377 magnetization 

 Broyden mixing:
  rms(total) = 0.66333E+00    rms(broyden)= 0.66317E+00
  rms(prec ) = 0.67322E+00
  weight for this iteration     100.00

 eigenvalues of (default mixing * dielectric matrix)
  average eigenvalue GAMMA=   1.0741
  1.8045  1.8045  0.6110  0.6110  0.5395

 Free energy of the ion-electron system (eV)
  ---------------------------------------------------
  alpha Z        PSCENC =       723.28310472
  Ewald energy   TEWEN  =    163319.63804885
  -Hartree energ DENC   =   -209113.43468023
  -exchange      EXHF   =         0.00000000
  -V(xc)+E(xc)   XCENC  =       612.27354578
  PAW double counting   =     73055.73461903   -71073.99383606
  entropy T*S    EENTRO =        -0.00000000
  eigenvalues    EBANDS =    -10894.28028225
  atomic energy  EATOM  =     52607.98737452
  Solvation  Ediel_sol  =         0.00000000
  ---------------------------------------------------
  free energy    TOTEN  =      -762.79210564 eV

  energy without entropy =     -762.79210564  energy(sigma->0) =     -762.79210564


--------------------------------------------------------------------------------------------------------




--------------------------------------- Iteration      1(  11)  ---------------------------------------


    POTLOK:  cpu time    0.2423: real time    0.2436
    SETDIJ:  cpu time    0.0093: real time    0.0093
     EDDAV:  cpu time   14.0532: real time   14.1292
       DOS:  cpu time    0.0002: real time    0.0002
    CHARGE:  cpu time    0.5376: real time    0.5392
    MIXING:  cpu time    0.0100: real time    0.0100
    --------------------------------------------
      LOOP:  cpu time   14.8526: real time   14.9314

 eigenvalue-minimisations  :  1776
 total energy-change (2. order) :-0.7543073E-02  (-0.9723884E-01)
 number of electron     791.9999855 magnetization 
 augmentation part      -26.0979637 magnetization 

 Broyden mixing:
  rms(total) = 0.33859E+00    rms(broyden)= 0.33854E+00
  rms(prec ) = 0.34761E+00
  weight for this iteration     100.00

 eigenvalues of (default mixing * dielectric matrix)
  average eigenvalue GAMMA=   1.2450
  2.7282  2.0513  0.8171  0.8171  0.5961  0.4603

 Free energy of the ion-electron system (eV)
  ---------------------------------------------------
  alpha Z        PSCENC =       723.28310472
  Ewald energy   TEWEN  =    163319.63804885
  -Hartree energ DENC   =   -209183.11089559
  -exchange      EXHF   =         0.00000000
  -V(xc)+E(xc)   XCENC  =       614.44628412
  PAW double counting   =     73489.32430431   -71487.18691180
  entropy T*S    EENTRO =        -0.00000000
  eigenvalues    EBANDS =    -10847.18095786
  atomic energy  EATOM  =     52607.98737452
  Solvation  Ediel_sol  =         0.00000000
  ---------------------------------------------------
  free energy    TOTEN  =      -762.79964872 eV

  energy without entropy =     -762.79964872  energy(sigma->0) =     -762.79964872


--------------------------------------------------------------------------------------------------------




--------------------------------------- Iteration      1(  12)  ---------------------------------------


    POTLOK:  cpu time    0.2440: real time    0.2455
    SETDIJ:  cpu time    0.0092: real time    0.0093
     EDDAV:  cpu time   14.0796: real time   14.1173
       DOS:  cpu time    0.0002: real time    0.0002
    CHARGE:  cpu time    0.5380: real time    0.5395
    MIXING:  cpu time    0.0088: real time    0.0088
    --------------------------------------------
      LOOP:  cpu time   14.8798: real time   14.9207

 eigenvalue-minimisations  :  1800
 total energy-change (2. order) : 0.9373958E-02  (-0.4612531E-01)
 number of electron     791.9999855 magnetization 
 augmentation part      -26.2602880 magnetization 

 Broyden mixing:
  rms(total) = 0.17974E+00    rms(broyden)= 0.17972E+00
  rms(prec ) = 0.18846E+00
  weight for this iteration     100.00

 eigenvalues of (default mixing * dielectric matrix)
  average eigenvalue GAMMA=   1.1255
  2.4804  2.1501  0.8296  0.7211  0.7211  0.4882  0.4882

 Free energy of the ion-electron system (eV)
  ---------------------------------------------------
  alpha Z        PSCENC =       723.28310472
  Ewald energy   TEWEN  =    163319.63804885
  -Hartree energ DENC   =   -209267.16094736
  -exchange      EXHF   =         0.00000000
  -V(xc)+E(xc)   XCENC  =       616.16075023
  PAW double counting   =     74159.24648198   -72139.93870501
  entropy T*S    EENTRO =        -0.00000000
  eigenvalues    EBANDS =    -10782.00638269
  atomic energy  EATOM  =     52607.98737452
  Solvation  Ediel_sol  =         0.00000000
  ---------------------------------------------------
  free energy    TOTEN  =      -762.79027476 eV

  energy without entropy =     -762.79027476  energy(sigma->0) =     -762.79027476


--------------------------------------------------------------------------------------------------------




--------------------------------------- Iteration      1(  13)  ---------------------------------------


    POTLOK:  cpu time    0.2433: real time    0.2440
    SETDIJ:  cpu time    0.0094: real time    0.0094
     EDDAV:  cpu time   14.2606: real time   14.2989
       DOS:  cpu time    0.0002: real time    0.0002
    CHARGE:  cpu time    0.5351: real time    0.5367
    MIXING:  cpu time    0.0119: real time    0.0119
    --------------------------------------------
      LOOP:  cpu time   15.0604: real time   15.1010

 eigenvalue-minimisations  :  1824
 total energy-change (2. order) : 0.9391518E-02  (-0.1307860E-01)
 number of electron     791.9999855 magnetization 
 augmentation part      -26.2560378 magnetization 

 Broyden mixing:
  rms(total) = 0.10215E+00    rms(broyden)= 0.10213E+00
  rms(prec ) = 0.10660E+00
  weight for this iteration     100.00

 eigenvalues of (default mixing * dielectric matrix)
  average eigenvalue GAMMA=   1.1032
  2.2540  2.2540  0.9951  0.9951  0.8592  0.5552  0.5018  0.4114

 Free energy of the ion-electron system (eV)
  ---------------------------------------------------
  alpha Z        PSCENC =       723.28310472
  Ewald energy   TEWEN  =    163319.63804885
  -Hartree energ DENC   =   -209266.78541869
  -exchange      EXHF   =         0.00000000
  -V(xc)+E(xc)   XCENC  =       615.99755966
  PAW double counting   =     74056.63381842   -72038.94134366
  entropy T*S    EENTRO =        -0.00000000
  eigenvalues    EBANDS =    -10780.59402706
  atomic energy  EATOM  =     52607.98737452
  Solvation  Ediel_sol  =         0.00000000
  ---------------------------------------------------
  free energy    TOTEN  =      -762.78088324 eV

  energy without entropy =     -762.78088324  energy(sigma->0) =     -762.78088324


--------------------------------------------------------------------------------------------------------




--------------------------------------- Iteration      1(  14)  ---------------------------------------


    POTLOK:  cpu time    0.2458: real time    0.2530
    SETDIJ:  cpu time    0.0092: real time    0.0092
     EDDAV:  cpu time   14.2614: real time   14.2994
       DOS:  cpu time    0.0002: real time    0.0002
    CHARGE:  cpu time    0.5396: real time    0.5412
    MIXING:  cpu time    0.0100: real time    0.0100
    --------------------------------------------
      LOOP:  cpu time   15.0661: real time   15.1130

 eigenvalue-minimisations  :  1824
 total energy-change (2. order) : 0.4482172E-03  (-0.5398401E-02)
 number of electron     791.9999855 magnetization 
 augmentation part      -26.2122522 magnetization 

 Broyden mixing:
  rms(total) = 0.63069E-01    rms(broyden)= 0.63060E-01
  rms(prec ) = 0.67888E-01
  weight for this iteration     100.00

 eigenvalues of (default mixing * dielectric matrix)
  average eigenvalue GAMMA=   1.1495
  2.4543  2.4543  1.2732  1.2732  0.6946  0.6946  0.6048  0.4708  0.4252

 Free energy of the ion-electron system (eV)
  ---------------------------------------------------
  alpha Z        PSCENC =       723.28310472
  Ewald energy   TEWEN  =    163319.63804885
  -Hartree energ DENC   =   -209271.91596794
  -exchange      EXHF   =         0.00000000
  -V(xc)+E(xc)   XCENC  =       615.89344610
  PAW double counting   =     73925.68116584   -71909.22562441
  entropy T*S    EENTRO =        -0.00000000
  eigenvalues    EBANDS =    -10774.12198270
  atomic energy  EATOM  =     52607.98737452
  Solvation  Ediel_sol  =         0.00000000
  ---------------------------------------------------
  free energy    TOTEN  =      -762.78043502 eV

  energy without entropy =     -762.78043502  energy(sigma->0) =     -762.78043502


--------------------------------------------------------------------------------------------------------




--------------------------------------- Iteration      1(  15)  ---------------------------------------


    POTLOK:  cpu time    0.2441: real time    0.2448
    SETDIJ:  cpu time    0.0091: real time    0.0091
     EDDAV:  cpu time   14.7049: real time   14.7789
       DOS:  cpu time    0.0002: real time    0.0002
    CHARGE:  cpu time    0.5386: real time    0.5399
    MIXING:  cpu time    0.0099: real time    0.0099
    --------------------------------------------
      LOOP:  cpu time   15.5068: real time   15.5829

 eigenvalue-minimisations  :  1896
 total energy-change (2. order) : 0.1027785E-02  (-0.2217536E-02)
 number of electron     791.9999855 magnetization 
 augmentation part      -26.1928644 magnetization 

 Broyden mixing:
  rms(total) = 0.43860E-01    rms(broyden)= 0.43855E-01
  rms(prec ) = 0.48432E-01
  weight for this iteration     100.00

 eigenvalues of (default mixing * dielectric matrix)
  average eigenvalue GAMMA=   1.1733
  2.9117  2.4658  1.4310  1.4310  0.7689  0.7689  0.5815  0.4344  0.4701  0.4701

 Free energy of the ion-electron system (eV)
  ---------------------------------------------------
  alpha Z        PSCENC =       723.28310472
  Ewald energy   TEWEN  =    163319.63804885
  -Hartree energ DENC   =   -209291.59555112
  -exchange      EXHF   =         0.00000000
  -V(xc)+E(xc)   XCENC  =       616.10652348
  PAW double counting   =     73876.44836070   -71858.48555948
  entropy T*S    EENTRO =        -0.00000000
  eigenvalues    EBANDS =    -10756.16170892
  atomic energy  EATOM  =     52607.98737452
  Solvation  Ediel_sol  =         0.00000000
  ---------------------------------------------------
  free energy    TOTEN  =      -762.77940724 eV

  energy without entropy =     -762.77940724  energy(sigma->0) =     -762.77940724


--------------------------------------------------------------------------------------------------------




--------------------------------------- Iteration      1(  16)  ---------------------------------------


    POTLOK:  cpu time    0.2428: real time    0.2448
    SETDIJ:  cpu time    0.0092: real time    0.0093
     EDDAV:  cpu time   14.2924: real time   14.3312
       DOS:  cpu time    0.0002: real time    0.0002
    CHARGE:  cpu time    0.5344: real time    0.5360
    MIXING:  cpu time    0.0140: real time    0.0140
    --------------------------------------------
      LOOP:  cpu time   15.0930: real time   15.1353

 eigenvalue-minimisations  :  1800
 total energy-change (2. order) : 0.1031891E-02  (-0.8412820E-03)
 number of electron     791.9999855 magnetization 
 augmentation part      -26.2087298 magnetization 

 Broyden mixing:
  rms(total) = 0.31295E-01    rms(broyden)= 0.31294E-01
  rms(prec ) = 0.34441E-01
  weight for this iteration     100.00

 eigenvalues of (default mixing * dielectric matrix)
  average eigenvalue GAMMA=   1.1217
  2.7058  2.5555  1.4669  1.4669  0.7584  0.7584  0.6371  0.5637  0.5637  0.4310
  0.4310

 Free energy of the ion-electron system (eV)
  ---------------------------------------------------
  alpha Z        PSCENC =       723.28310472
  Ewald energy   TEWEN  =    163319.63804885
  -Hartree energ DENC   =   -209310.67356231
  -exchange      EXHF   =         0.00000000
  -V(xc)+E(xc)   XCENC  =       616.31158703
  PAW double counting   =     73899.82842004   -71880.39577916
  entropy T*S    EENTRO =        -0.00000000
  eigenvalues    EBANDS =    -10738.75756903
  atomic energy  EATOM  =     52607.98737452
  Solvation  Ediel_sol  =         0.00000000
  ---------------------------------------------------
  free energy    TOTEN  =      -762.77837535 eV

  energy without entropy =     -762.77837535  energy(sigma->0) =     -762.77837535


--------------------------------------------------------------------------------------------------------




--------------------------------------- Iteration      1(  17)  ---------------------------------------


    POTLOK:  cpu time    0.2443: real time    0.2451
    SETDIJ:  cpu time    0.0096: real time    0.0096
     EDDAV:  cpu time   14.4060: real time   14.4444
       DOS:  cpu time    0.0002: real time    0.0002
    CHARGE:  cpu time    0.5355: real time    0.5372
    MIXING:  cpu time    0.0135: real time    0.0135
    --------------------------------------------
      LOOP:  cpu time   15.2090: real time   15.2499

 eigenvalue-minimisations  :  1848
 total energy-change (2. order) :-0.1075187E-02  (-0.3207483E-03)
 number of electron     791.9999855 magnetization 
 augmentation part      -26.2191026 magnetization 

 Broyden mixing:
  rms(total) = 0.20323E-01    rms(broyden)= 0.20323E-01
  rms(prec ) = 0.23353E-01
  weight for this iteration     100.00

 eigenvalues of (default mixing * dielectric matrix)
  average eigenvalue GAMMA=   1.1232
  2.7414  2.4856  1.4747  1.4747  0.9306  0.9306  0.8254  0.6362  0.6362  0.4639
  0.4639  0.4147

 Free energy of the ion-electron system (eV)
  ---------------------------------------------------
  alpha Z        PSCENC =       723.28310472
  Ewald energy   TEWEN  =    163319.63804885
  -Hartree energ DENC   =   -209314.96347135
  -exchange      EXHF   =         0.00000000
  -V(xc)+E(xc)   XCENC  =       616.30958229
[...]
   -.324E+02 -.381E+02 -.651E+03   0.314E+02 0.373E+02 0.657E+03   0.103E+01 0.837E+00 -.563E+01   -.380E-02 -.167E-02 -.416E-02
   0.139E+02 0.412E+02 0.648E+03   -.141E+02 -.403E+02 -.653E+03   0.169E+00 -.891E+00 0.553E+01   -.294E-02 -.769E-03 0.466E-02
   0.860E+01 0.597E+02 0.635E+03   -.853E+01 -.587E+02 -.641E+03   -.573E-01 -.970E+00 0.591E+01   -.433E-04 0.141E-02 -.680E-02
   0.307E+02 0.919E+01 0.700E+03   -.299E+02 -.877E+01 -.704E+03   -.839E+00 -.423E+00 0.456E+01   -.160E-03 0.219E-02 0.909E-03
   -.380E+02 -.267E+02 0.626E+03   0.370E+02 0.261E+02 -.632E+03   0.946E+00 0.601E+00 0.576E+01   0.230E-02 -.382E-02 -.587E-03
   -.868E+01 0.339E+02 -.622E+03   0.888E+01 -.327E+02 0.627E+03   -.193E+00 -.122E+01 -.567E+01   -.346E-02 -.644E-03 -.570E-02
   0.461E+02 -.102E+01 -.693E+03   -.449E+02 0.116E+01 0.697E+03   -.116E+01 -.143E+00 -.447E+01   -.866E-03 -.273E-02 0.409E-02
   0.334E+02 -.566E+01 0.697E+03   -.322E+02 0.606E+01 -.701E+03   -.123E+01 -.398E+00 0.442E+01   -.443E-02 -.140E-02 0.709E-02
   0.285E+02 0.823E+01 -.690E+03   -.269E+02 -.761E+01 0.695E+03   -.155E+01 -.627E+00 -.477E+01   0.248E-02 0.246E-02 0.724E-04
   -.591E+02 -.225E+02 0.633E+03   0.581E+02 0.217E+02 -.639E+03   0.103E+01 0.821E+00 0.574E+01   -.208E-02 0.169E-02 0.621E-02
   -.362E+02 -.307E+02 0.629E+03   0.352E+02 0.298E+02 -.634E+03   0.101E+01 0.900E+00 0.583E+01   0.649E-02 0.154E-03 -.797E-02
   0.381E+02 0.457E+00 -.688E+03   -.369E+02 -.860E-01 0.692E+03   -.129E+01 -.381E+00 -.459E+01   -.340E-02 0.561E-02 -.896E-02
   -.614E+01 0.118E+02 0.626E+03   0.603E+01 -.110E+02 -.631E+03   0.112E+00 -.849E+00 0.567E+01   -.530E-03 0.337E-02 0.152E-02
   0.152E+02 0.363E+02 -.657E+03   -.156E+02 -.352E+02 0.662E+03   0.385E+00 -.107E+01 -.546E+01   -.490E-02 -.728E-02 0.620E-02
   0.581E+02 -.902E+01 0.636E+03   -.575E+02 0.843E+01 -.642E+03   -.627E+00 0.607E+00 0.574E+01   -.121E-02 -.308E-02 -.634E-02
   -.228E+02 0.186E+02 -.704E+03   0.217E+02 -.179E+02 0.708E+03   0.108E+01 -.661E+00 -.446E+01   0.308E-02 -.771E-04 0.456E-02
   0.530E+02 -.178E+02 -.612E+03   -.522E+02 0.173E+02 0.618E+03   -.844E+00 0.495E+00 -.626E+01   0.207E-02 0.378E-02 0.183E-02
   0.159E+02 0.163E+02 -.693E+03   -.151E+02 -.160E+02 0.698E+03   -.856E+00 -.336E+00 -.462E+01   -.321E-02 -.330E-03 0.560E-02
   -.420E+02 -.221E+02 -.628E+03   0.407E+02 0.213E+02 0.634E+03   0.129E+01 0.810E+00 -.601E+01   -.476E-02 0.311E-02 -.589E-02
   -.395E+01 -.515E+02 0.675E+03   0.400E+01 0.502E+02 -.680E+03   -.571E-01 0.125E+01 0.497E+01   -.848E-03 0.342E-02 0.765E-03
   0.476E+01 -.149E+02 -.730E+03   -.459E+01 0.150E+02 0.734E+03   -.176E+00 -.501E-01 -.363E+01   0.108E-02 0.133E-02 0.367E-02
   -.125E+02 0.119E+01 -.714E+03   0.126E+02 -.113E+01 0.718E+03   -.593E-01 -.479E-01 -.375E+01   -.216E-02 -.573E-02 -.408E-02
   -.588E+01 -.552E+02 -.658E+03   0.598E+01 0.538E+02 0.663E+03   -.108E+00 0.136E+01 -.493E+01   0.472E-03 -.228E-02 -.572E-02
   0.417E+02 0.874E+01 0.695E+03   -.405E+02 -.839E+01 -.700E+03   -.115E+01 -.336E+00 0.483E+01   0.170E-02 -.849E-02 -.112E-01
   0.161E+01 -.466E+02 -.702E+03   -.171E+01 0.462E+02 0.705E+03   0.927E-01 0.408E+00 -.266E+01   -.112E-02 -.258E-02 -.672E-02
   0.264E+02 0.834E+01 -.713E+03   -.257E+02 -.826E+01 0.715E+03   -.617E+00 -.834E-01 -.245E+01   -.162E-02 0.372E-03 0.154E-02
   -.724E+01 0.129E+02 -.672E+03   0.719E+01 -.128E+02 0.675E+03   0.498E-01 -.128E+00 -.280E+01   -.351E-03 0.911E-03 0.939E-03
   -.351E+02 -.202E+02 -.682E+03   0.345E+02 0.199E+02 0.685E+03   0.527E+00 0.323E+00 -.285E+01   0.288E-03 -.289E-02 0.123E-03
   0.153E+01 0.440E+02 0.660E+03   -.141E+01 -.437E+02 -.663E+03   -.132E+00 -.273E+00 0.305E+01   0.213E-02 -.316E-03 0.103E-02
   -.263E+02 -.314E+02 -.646E+03   0.259E+02 0.310E+02 0.650E+03   0.390E+00 0.390E+00 -.330E+01   0.235E-02 -.434E-02 0.345E-02
   -.247E+02 -.113E+02 -.651E+03   0.242E+02 0.108E+02 0.654E+03   0.425E+00 0.497E+00 -.314E+01   0.495E-02 -.957E-03 -.102E-02
   -.457E+01 -.512E+02 -.695E+03   0.447E+01 0.507E+02 0.697E+03   0.968E-01 0.550E+00 -.283E+01   -.336E-03 0.232E-02 0.201E-02
   -.231E+01 -.470E+02 0.713E+03   0.230E+01 0.465E+02 -.716E+03   0.160E-01 0.483E+00 0.269E+01   0.602E-04 0.224E-02 -.454E-02
   0.385E+02 -.317E+01 -.683E+03   -.381E+02 0.286E+01 0.685E+03   -.441E+00 0.309E+00 -.281E+01   -.487E-02 -.211E-02 -.354E-02
   0.301E+02 0.134E+02 -.709E+03   -.298E+02 -.132E+02 0.711E+03   -.231E+00 -.212E+00 -.252E+01   0.332E-03 -.734E-04 0.169E-03
   -.380E+02 -.339E+02 -.654E+03   0.373E+02 0.334E+02 0.657E+03   0.698E+00 0.474E+00 -.320E+01   0.292E-02 0.290E-02 -.197E-02
   -.960E+01 0.319E+02 0.682E+03   0.962E+01 -.316E+02 -.685E+03   -.226E-01 -.240E+00 0.292E+01   -.352E-02 0.244E-02 -.335E-02
   0.716E+01 0.290E+02 -.650E+03   -.725E+01 -.287E+02 0.653E+03   0.842E-01 -.312E+00 -.300E+01   0.567E-03 -.914E-04 -.462E-02
   -.253E+02 0.158E+00 -.655E+03   0.251E+02 -.364E+00 0.658E+03   0.179E+00 0.207E+00 -.316E+01   -.545E-03 0.369E-02 0.274E-02
   0.357E+02 -.233E+02 -.646E+03   -.351E+02 0.229E+02 0.650E+03   -.560E+00 0.333E+00 -.326E+01   -.134E-02 0.142E-02 0.316E-02
   -.734E+01 -.500E+02 0.720E+03   0.733E+01 0.495E+02 -.723E+03   0.196E-02 0.535E+00 0.269E+01   0.159E-02 0.774E-04 -.234E-02
   0.524E+02 -.185E+02 -.658E+03   -.520E+02 0.181E+02 0.661E+03   -.396E+00 0.307E+00 -.302E+01   -.216E-03 0.266E-02 0.214E-02
   -.109E+02 -.523E+02 0.691E+03   0.110E+02 0.517E+02 -.694E+03   -.649E-01 0.540E+00 0.285E+01   0.271E-02 0.379E-02 0.432E-02
   -.270E+02 0.646E+01 0.714E+03   0.264E+02 -.627E+01 -.717E+03   0.575E+00 -.192E+00 0.262E+01   -.978E-03 -.940E-03 0.393E-03
   0.423E+01 0.394E+02 -.653E+03   -.428E+01 -.390E+02 0.656E+03   0.495E-01 -.428E+00 -.300E+01   0.107E-02 -.218E-03 -.417E-02
   0.997E+00 0.473E+02 -.686E+03   -.876E+00 -.466E+02 0.689E+03   -.130E+00 -.637E+00 -.290E+01   0.588E-03 -.581E-03 -.620E-03
   -.243E+02 -.327E+02 -.672E+03   0.238E+02 0.325E+02 0.675E+03   0.524E+00 0.230E+00 -.295E+01   0.419E-02 -.376E-02 -.330E-04
   -.320E+02 -.301E+02 0.639E+03   0.315E+02 0.298E+02 -.643E+03   0.487E+00 0.355E+00 0.334E+01   0.434E-02 -.814E-03 0.501E-02
   -.352E+02 -.197E+02 0.687E+03   0.347E+02 0.194E+02 -.690E+03   0.428E+00 0.265E+00 0.307E+01   -.411E-02 0.327E-03 -.334E-02
   0.236E+02 0.112E+02 -.708E+03   -.234E+02 -.111E+02 0.711E+03   -.206E+00 -.116E+00 -.262E+01   0.264E-02 -.135E-02 0.401E-02
   -.383E+02 -.348E+02 0.651E+03   0.378E+02 0.346E+02 -.654E+03   0.518E+00 0.221E+00 0.327E+01   0.430E-03 -.217E-03 0.224E-02
   -.466E+02 -.221E+02 -.676E+03   0.461E+02 0.219E+02 0.679E+03   0.486E+00 0.173E+00 -.288E+01   -.129E-02 0.191E-02 0.279E-02
   -.303E+02 -.142E+02 0.666E+03   0.300E+02 0.139E+02 -.669E+03   0.229E+00 0.306E+00 0.315E+01   -.290E-03 -.324E-02 0.835E-03
   0.503E+02 -.126E+02 0.655E+03   -.501E+02 0.122E+02 -.658E+03   -.289E+00 0.341E+00 0.301E+01   0.258E-02 0.186E-02 0.212E-02
   -.409E+02 -.233E+02 -.640E+03   0.404E+02 0.228E+02 0.644E+03   0.481E+00 0.494E+00 -.335E+01   -.351E-02 0.382E-02 -.998E-03
   0.141E+02 0.280E+02 0.661E+03   -.143E+02 -.276E+02 -.664E+03   0.217E+00 -.391E+00 0.300E+01   0.574E-03 0.943E-03 -.384E-02
   -.229E+02 -.118E+01 0.650E+03   0.227E+02 0.942E+00 -.653E+03   0.200E+00 0.231E+00 0.318E+01   0.574E-03 0.213E-02 0.537E-02
   -.317E+02 -.287E+02 0.638E+03   0.311E+02 0.285E+02 -.642E+03   0.603E+00 0.253E+00 0.339E+01   0.113E-02 0.387E-02 0.142E-03
   0.401E+02 -.284E+02 0.646E+03   -.397E+02 0.282E+02 -.649E+03   -.351E+00 0.232E+00 0.327E+01   -.103E-03 -.405E-04 0.168E-02
   0.373E+02 -.850E+01 0.671E+03   -.367E+02 0.819E+01 -.674E+03   -.552E+00 0.305E+00 0.313E+01   -.871E-03 0.333E-02 -.131E-02
 -----------------------------------------------------------------------------------------------
   -.179E+00 0.962E+01 -.146E+02   -.668E-12 0.203E-12 0.136E-11   0.163E+00 -.961E+01 0.147E+02   -.671E-02 -.110E-01 -.814E-02
 
 
 POSITION                                       TOTAL-FORCE (eV/Angst)
 -----------------------------------------------------------------------------------
      4.85208     -0.97871     11.68104        -0.003046      0.002296      0.005333
     14.48343     -1.08978     11.68920         0.001000     -0.000142     -0.002200
      6.44986    -16.08937     11.70322        -0.000577     -0.001633     -0.009771
     -4.79130    -13.16018     11.63819        -0.000710      0.007659      0.014024
     -1.61885    -13.11972     11.64243        -0.002409      0.001535      0.001474
      4.81244    -13.03460     11.71413        -0.000303     -0.002517     -0.006531
      0.02466    -10.03782     11.63909        -0.000684     -0.002509      0.004059
      4.92149     -7.03496     11.71305         0.001118     -0.001156     -0.005775
      8.06942     -7.07113     11.74588         0.003429      0.000747     -0.005033
     11.27808     -7.06261     11.71280         0.000311     -0.003495      0.006291
     -1.63210     -6.99940     11.65177         0.002070     -0.001528      0.002081
     16.13649     -4.00910     11.64278         0.001713     -0.003844     -0.001141
      0.02548    -16.09945     11.71949         0.001859     -0.002287      0.003178
     11.32033    -13.12941     11.65467         0.003701     -0.000281      0.001783
      3.19761     -3.93125     11.71018         0.001698      0.000180     -0.007998
      1.61182     -1.04817     11.66135         0.004041      0.000149      0.004098
     11.31469     -1.06686     11.69068        -0.002470     -0.001427      0.004095
      9.68711     -9.94089     11.73305        -0.000776     -0.004179      0.003421
      8.00381    -13.13729     11.70136         0.001341     -0.001739      0.002510
     14.47801     -7.10402     11.62714        -0.002888     -0.005059     -0.005047
      9.66855     -4.07414     11.67507        -0.002020     -0.004615     -0.003680
     17.74565     -1.11391     11.65104         0.000608     -0.000128      0.002186
     -3.18044    -16.17391     11.68686        -0.003130     -0.003242     -0.007360
      6.48345    -10.10307     11.72448        -0.001687     -0.004074     -0.000276
      9.63940    -16.17589     11.64529        -0.003512     -0.002621      0.005787
     -6.44850    -16.10376     11.63716         0.002445     -0.005598     -0.003107
      8.00858     -1.09794     11.67339        -0.000719      0.000796      0.006113
      3.21657    -16.24545     11.71753         0.001044      0.005278      0.002835
     12.86993    -10.10018     11.65297        -0.000782     -0.002150      0.000352
     -3.22434    -10.15070     11.60168         0.000219     -0.006790      0.005248
      3.16975    -10.15446     11.68759         0.000493     -0.002976      0.001105
      1.60575     -7.13268     11.70469         0.001692     -0.000727     -0.001185
      6.43934     -4.12535     11.69904        -0.002091      0.000043      0.004144
     12.94148     -4.05531     11.64598        -0.000058      0.004530     -0.004551
     -0.01868     -4.06825     11.68909         0.002299     -0.000585      0.002742
      1.63971    -13.15226     11.68512         0.000327     -0.000140      0.003232
      1.60417    -15.19403     10.18351        -0.003802      0.001268     -0.002685
     17.67360     -3.07950     13.22444        -0.001768     -0.000495      0.000004
      3.24795    -12.14372     10.13617        -0.003640     -0.003057     -0.008550
      6.42599     -0.02079     10.12996         0.001514      0.003584     -0.001639
     -0.00442     -6.08011     10.16081        -0.002508      0.000646     -0.005177
      8.00232    -15.14013     10.16499         0.003765      0.000402     -0.006229
      6.39113    -12.09069     10.16433         0.001509     -0.000458     -0.005380
     11.30684     -3.00196     13.17916        -0.003162      0.000776      0.002656
     14.57466     -2.98400     10.14332        -0.004447      0.000429      0.006502
      8.02830     -3.09668     10.10677        -0.001542      0.001016      0.002027
     -4.86740     -9.11066     10.05644        -0.000043      0.002909      0.005408
      0.02185     -0.05569     13.15277         0.002729     -0.002386      0.002467
     14.57371     -3.02748     13.17705         0.006797      0.002494     -0.000460
      6.50477     -6.13859     10.18946        -0.000279      0.002934     -0.003644
      9.66120     -6.11178     10.22202         0.007407     -0.002767      0.005300
     -1.63588     -3.08862     10.09607         0.002613      0.002655     -0.000652
      8.09455     -8.99026     10.23731         0.004606     -0.003951      0.004151
     -3.21184    -12.15381     13.11341         0.005971      0.003518      0.008092
      1.56613     -9.14594     13.23430         0.003721      0.001413     -0.004329
      1.61264     -9.10392     10.11793        -0.003800     -0.002515     -0.006017
     12.89536     -6.05912     13.20364        -0.003811     -0.005752     -0.009439
      1.60649     -2.99653     10.19420        -0.001246      0.001739     -0.005134
     -1.52981    -15.09692     10.20777         0.000721     -0.006103     -0.008384
      6.42592     -0.02848     13.22501        -0.003203     -0.004624      0.009760
     12.89917     -0.11681     10.20813        -0.002574     -0.002065      0.001339
      6.47680     -6.11017     13.24979        -0.002295      0.002182     -0.001732
     11.23437     -8.97604     10.19532        -0.000128      0.005342      0.010227
      3.21670    -12.12548     13.25763         0.004649      0.000968     -0.004355
     -0.06165    -12.01018     13.09842         0.003136     -0.002438      0.003607
      6.39637    -12.10533     13.26256        -0.003552     -0.001732     -0.002893
     16.09672     -5.98742     13.10421         0.006520      0.006355      0.006219
     -4.77481    -15.08689     10.13524        -0.001244     -0.004944     -0.016802
      8.05094     -3.07799     13.25737         0.002122     -0.003542      0.000270
     -4.81699     -9.11350     13.19309         0.001654      0.005392      0.003846
     11.25591    -15.05671     13.14599        -0.006306      0.002414      0.009532
     12.81650     -6.08556     10.12398         0.001783      0.004517     -0.005023
     -4.81795    -15.06397     13.37476        -0.001946     -0.004896      0.009964
      8.06158    -15.16734     13.41860        -0.001969     -0.001347     -0.000418
     12.90211     -0.14948     13.39924        -0.001324      0.002318     -0.000705
      8.07805     -9.01232     13.43537        -0.002165      0.001469      0.003766
      3.23276     -0.01720     10.00643        -0.002873      0.004390     -0.007486
      3.27556     -5.96179     13.32311        -0.001588      0.002550     -0.004397
     -1.60923     -9.01174     13.26940         0.006708      0.002402      0.004943
      4.79376     -9.00702     13.38052        -0.002638      0.000036     -0.003869
     11.23927    -15.04682      9.92517         0.005224     -0.001943     -0.002823
     11.31476     -8.99960     13.40178        -0.000186      0.001581      0.003927
      1.60530    -15.16267     13.43599         0.000574      0.000285     -0.000407
     -0.00602    -18.14798     13.31517         0.001890      0.001012      0.002150
     -3.20689    -12.20099      9.92524        -0.003665      0.002287     -0.000544
     -6.40851    -12.16858     13.30375        -0.006682      0.007126      0.010978
      4.85876    -15.04432     13.34015         0.001670      0.004374     -0.003914
      6.41914    -18.12144     13.30246        -0.001465      0.003871     -0.001127
     11.28830     -2.97907      9.94668         0.000161      0.002785      0.009418
      4.82641     -2.93927     13.34891        -0.001196     -0.000456     -0.002336
      4.83997     -9.00269     10.03493         0.000413      0.000340     -0.005962
      0.02199     -0.07377      9.93058         0.000313      0.002193     -0.001336
     -6.47018    -18.12867     13.30987        -0.002386     -0.001408      0.002317
      9.69803     -6.04778     13.40273        -0.007263      0.004394      0.000910
     -1.56815    -15.04546     13.36652         0.006454      0.003022      0.002755
      3.28020     -5.95691     10.09536         0.001657     -0.000802     -0.008038
     16.11671     -5.97931      9.95819        -0.009308     -0.005028      0.006064
     -0.05714     -6.09167     13.40726         0.000443     -0.001572     -0.005032
      0.02137    -18.10480     10.07152        -0.000468      0.003973      0.000597
      1.58001     -2.95593     13.38582         0.001393     -0.001605     -0.002241
     -1.56796     -8.97567      9.99167        -0.001915     -0.001947     -0.002553
      4.81047     -2.96337     10.04240         0.001888      0.001032     -0.007625
      9.71668    -12.01890     13.29916        -0.000066      0.000285      0.005356
     -6.43487    -12.16082      9.98946         0.002096      0.002701      0.005776
      4.84213    -15.04096     10.07734        -0.001683      0.000157     -0.009366
      9.67906    -11.96118     10.09042        -0.001537      0.003275      0.001622
      6.37555    -18.08848     10.06275         0.000921     -0.003153     -0.003068
     -0.01061    -12.03882      9.99251         0.005108      0.002404     -0.002610
 -----------------------------------------------------------------------------------
    total drift:                               -0.023438     -0.003710      0.019599


--------------------------------------------------------------------------------------------------------



  FREE ENERGIE OF THE ION-ELECTRON SYSTEM (eV)
  ---------------------------------------------------
  free  energy   TOTEN  =      -763.25036171 eV

  energy  without entropy=     -763.25036171  energy(sigma->0) =     -763.25036171
 
 d Force = 0.3158829E-03[ 0.206E-03, 0.426E-03]  d Energy = 0.3018045E-03 0.141E-04
 d Force = 0.1669591E+01[ 0.167E+01, 0.167E+01]  d Ewald  =-0.5536020E+01 0.721E+01


--------------------------------------------------------------------------------------------------------


    POTLOK:  cpu time    0.2628: real time    0.2634


--------------------------------------------------------------------------------------------------------


 Conjugate gradient step on ions:
 trial-energy change:   -0.000302  1 .order   -0.000311   -0.000425   -0.000197
  (g-gl).g = 0.344E-03      g.g   = 0.557E-03  gl.gl    = 0.874E-03
 g(Force)  = 0.557E-03   g(Stress)= 0.535E-06 ortho     =-0.107E-04
 gamma     =   0.39294
 trial     =   0.76886
 opt step  =   1.43224  (harmonic =   1.43224) maximal distance =0.00208896
 next E    =  -763.250456   (d E  =  -0.00040)


--------------------------------------------------------------------------------------------------------


  
 reached required accuracy - stopping structural energy minimisation
     LOOP+:  cpu time   58.1334: real time   58.3120
    4ORBIT:  cpu time    0.0000: real time    0.0000

 total amount of memory used by VASP MPI-rank0   165367. kBytes
=======================================================================

   base      :      30000. kBytes
   nonlr-proj:      27500. kBytes
   fftplans  :      13913. kBytes
   grid      :      57677. kBytes
   one-center:       1679. kBytes
   wavefun   :      34598. kBytes
 
  
  
 General timing and accounting informations for this job:
 ========================================================
  
                  Total CPU time used (sec):     2709.936
                            User time (sec):     2702.021
                          System time (sec):        7.915
                         Elapsed time (sec):     2718.603
  
                   Maximum memory used (kb):      266488.
                   Average memory used (kb):           0.
  
                          Minor page faults:      2281053
                          Major page faults:            0
                 Voluntary context switches:         2684
